2
Lattice="20.0 0.0 0.0 0.0 20.0 0.0 0.0 0.0 20.0" Properties=species:S:1:pos:R:3 Time=0.000000
H  -0.662000  0.000000  0.000000
H  0.662000  0.000000  0.000000
2
Lattice="20.0 0.0 0.0 0.0 20.0 0.0 0.0 0.0 20.0" Properties=species:S:1:pos:R:3 Time=0.500000
H  -0.615559  0.000000  0.000000
H  0.615559  0.000000  0.000000
2
Lattice="20.0 0.0 0.0 0.0 20.0 0.0 0.0 0.0 20.0" Properties=species:S:1:pos:R:3 Time=1.000000
H  -0.657260  0.000000  0.000000
H  0.657260  0.000000  0.000000
2
Lattice="20.0 0.0 0.0 0.0 20.0 0.0 0.0 0.0 20.0" Properties=species:S:1:pos:R:3 Time=1.500000
H  -0.625955  0.000000  0.000000
H  0.625955  0.000000  0.000000
2
Lattice="20.0 0.0 0.0 0.0 20.0 0.0 0.0 0.0 20.0" Properties=species:S:1:pos:R:3 Time=2.000000
H  -0.644667  0.000000  0.000000
H  0.644667  0.000000  0.000000
2
Lattice="20.0 0.0 0.0 0.0 20.0 0.0 0.0 0.0 20.0" Properties=species:S:1:pos:R:3 Time=2.500000
H  -0.641487  0.000000  0.000000
H  0.641487  0.000000  0.000000
2
Lattice="20.0 0.0 0.0 0.0 20.0 0.0 0.0 0.0 20.0" Properties=species:S:1:pos:R:3 Time=3.000000
H  -0.628958  0.000000  0.000000
H  0.628958  0.000000  0.000000
2
Lattice="20.0 0.0 0.0 0.0 20.0 0.0 0.0 0.0 20.0" Properties=species:S:1:pos:R:3 Time=3.500000
H  -0.655201  0.000000  0.000000
H  0.655201  0.000000  0.000000
2
Lattice="20.0 0.0 0.0 0.0 20.0 0.0 0.0 0.0 20.0" Properties=species:S:1:pos:R:3 Time=4.000000
H  -0.616959  0.000000  0.000000
H  0.616959  0.000000  0.000000
2
Lattice="20.0 0.0 0.0 0.0 20.0 0.0 0.0 0.0 20.0" Properties=species:S:1:pos:R:3 Time=4.500000
H  -0.661794  0.000000  0.000000
H  0.661794  0.000000  0.000000
2
Lattice="20.0 0.0 0.0 0.0 20.0 0.0 0.0 0.0 20.0" Properties=species:S:1:pos:R:3 Time=5.000000
H  -0.614617  0.000000  0.000000
H  0.614617  0.000000  0.000000
2
Lattice="20.0 0.0 0.0 0.0 20.0 0.0 0.0 0.0 20.0" Properties=species:S:1:pos:R:3 Time=5.500000
H  -0.658977  0.000000  0.000000
H  0.658977  0.000000  0.000000
2
Lattice="20.0 0.0 0.0 0.0 20.0 0.0 0.0 0.0 20.0" Properties=species:S:1:pos:R:3 Time=6.000000
H  -0.623173  0.000000  0.000000
H  0.623173  0.000000  0.000000
2
Lattice="20.0 0.0 0.0 0.0 20.0 0.0 0.0 0.0 20.0" Properties=species:S:1:pos:R:3 Time=6.500000
H  -0.647707  0.000000  0.000000
H  0.647707  0.000000  0.000000
2
Lattice="20.0 0.0 0.0 0.0 20.0 0.0 0.0 0.0 20.0" Properties=species:S:1:pos:R:3 Time=7.000000
H  -0.638224  0.000000  0.000000
H  0.638224  0.000000  0.000000
2
Lattice="20.0 0.0 0.0 0.0 20.0 0.0 0.0 0.0 20.0" Properties=species:S:1:pos:R:3 Time=7.500000
H  -0.632121  0.000000  0.000000
H  0.632121  0.000000  0.000000
2
Lattice="20.0 0.0 0.0 0.0 20.0 0.0 0.0 0.0 20.0" Properties=species:S:1:pos:R:3 Time=8.000000
H  -0.652831  0.000000  0.000000
H  0.652831  0.000000  0.000000
2
Lattice="20.0 0.0 0.0 0.0 20.0 0.0 0.0 0.0 20.0" Properties=species:S:1:pos:R:3 Time=8.500000
H  -0.618784  0.000000  0.000000
H  0.618784  0.000000  0.000000
2
Lattice="20.0 0.0 0.0 0.0 20.0 0.0 0.0 0.0 20.0" Properties=species:S:1:pos:R:3 Time=9.000000
H  -0.661180  0.000000  0.000000
H  0.661180  0.000000  0.000000
2
Lattice="20.0 0.0 0.0 0.0 20.0 0.0 0.0 0.0 20.0" Properties=species:S:1:pos:R:3 Time=9.500000
H  -0.614158  0.000000  0.000000
H  0.614158  0.000000  0.000000
2
Lattice="20.0 0.0 0.0 0.0 20.0 0.0 0.0 0.0 20.0" Properties=species:S:1:pos:R:3 Time=10.000000
H  -0.660325  0.000000  0.000000
H  0.660325  0.000000  0.000000
2
Lattice="20.0 0.0 0.0 0.0 20.0 0.0 0.0 0.0 20.0" Properties=species:S:1:pos:R:3 Time=10.500000
H  -0.620675  0.000000  0.000000
H  0.620675  0.000000  0.000000
2
Lattice="20.0 0.0 0.0 0.0 20.0 0.0 0.0 0.0 20.0" Properties=species:S:1:pos:R:3 Time=11.000000
H  -0.650556  0.000000  0.000000
H  0.650556  0.000000  0.000000
2
Lattice="20.0 0.0 0.0 0.0 20.0 0.0 0.0 0.0 20.0" Properties=species:S:1:pos:R:3 Time=11.500000
H  -0.634937  0.000000  0.000000
H  0.634937  0.000000  0.000000
2
Lattice="20.0 0.0 0.0 0.0 20.0 0.0 0.0 0.0 20.0" Properties=species:S:1:pos:R:3 Time=12.000000
H  -0.635378  0.000000  0.000000
H  0.635378  0.000000  0.000000
2
Lattice="20.0 0.0 0.0 0.0 20.0 0.0 0.0 0.0 20.0" Properties=species:S:1:pos:R:3 Time=12.500000
H  -0.650186  0.000000  0.000000
H  0.650186  0.000000  0.000000
2
Lattice="20.0 0.0 0.0 0.0 20.0 0.0 0.0 0.0 20.0" Properties=species:S:1:pos:R:3 Time=13.000000
H  -0.620992  0.000000  0.000000
H  0.620992  0.000000  0.000000
2
Lattice="20.0 0.0 0.0 0.0 20.0 0.0 0.0 0.0 20.0" Properties=species:S:1:pos:R:3 Time=13.500000
H  -0.660166  0.000000  0.000000
H  0.660166  0.000000  0.000000
2
Lattice="20.0 0.0 0.0 0.0 20.0 0.0 0.0 0.0 20.0" Properties=species:S:1:pos:R:3 Time=14.000000
H  -0.614191  0.000000  0.000000
H  0.614191  0.000000  0.000000
2
Lattice="20.0 0.0 0.0 0.0 20.0 0.0 0.0 0.0 20.0" Properties=species:S:1:pos:R:3 Time=14.500000
H  -0.661286  0.000000  0.000000
H  0.661286  0.000000  0.000000
2
Lattice="20.0 0.0 0.0 0.0 20.0 0.0 0.0 0.0 20.0" Properties=species:S:1:pos:R:3 Time=15.000000
H  -0.618516  0.000000  0.000000
H  0.618516  0.000000  0.000000
2
Lattice="20.0 0.0 0.0 0.0 20.0 0.0 0.0 0.0 20.0" Properties=species:S:1:pos:R:3 Time=15.500000
H  -0.653167  0.000000  0.000000
H  0.653167  0.000000  0.000000
2
Lattice="20.0 0.0 0.0 0.0 20.0 0.0 0.0 0.0 20.0" Properties=species:S:1:pos:R:3 Time=16.000000
H  -0.631689  0.000000  0.000000
H  0.631689  0.000000  0.000000
2
Lattice="20.0 0.0 0.0 0.0 20.0 0.0 0.0 0.0 20.0" Properties=species:S:1:pos:R:3 Time=16.500000
H  -0.638665  0.000000  0.000000
H  0.638665  0.000000  0.000000
2
Lattice="20.0 0.0 0.0 0.0 20.0 0.0 0.0 0.0 20.0" Properties=species:S:1:pos:R:3 Time=17.000000
H  -0.647309  0.000000  0.000000
H  0.647309  0.000000  0.000000
2
Lattice="20.0 0.0 0.0 0.0 20.0 0.0 0.0 0.0 20.0" Properties=species:S:1:pos:R:3 Time=17.500000
H  -0.623532  0.000000  0.000000
H  0.623532  0.000000  0.000000
2
Lattice="20.0 0.0 0.0 0.0 20.0 0.0 0.0 0.0 20.0" Properties=species:S:1:pos:R:3 Time=18.000000
H  -0.658767  0.000000  0.000000
H  0.658767  0.000000  0.000000
2
Lattice="20.0 0.0 0.0 0.0 20.0 0.0 0.0 0.0 20.0" Properties=species:S:1:pos:R:3 Time=18.500000
H  -0.614716  0.000000  0.000000
H  0.614716  0.000000  0.000000
2
Lattice="20.0 0.0 0.0 0.0 20.0 0.0 0.0 0.0 20.0" Properties=species:S:1:pos:R:3 Time=19.000000
H  -0.661846  0.000000  0.000000
H  0.661846  0.000000  0.000000
2
Lattice="20.0 0.0 0.0 0.0 20.0 0.0 0.0 0.0 20.0" Properties=species:S:1:pos:R:3 Time=19.500000
H  -0.616745  0.000000  0.000000
H  0.616745  0.000000  0.000000
2
Lattice="20.0 0.0 0.0 0.0 20.0 0.0 0.0 0.0 20.0" Properties=species:S:1:pos:R:3 Time=20.000000
H  -0.655497  0.000000  0.000000
H  0.655497  0.000000  0.000000
2
Lattice="20.0 0.0 0.0 0.0 20.0 0.0 0.0 0.0 20.0" Properties=species:S:1:pos:R:3 Time=20.500000
H  -0.628544  0.000000  0.000000
H  0.628544  0.000000  0.000000
2
Lattice="20.0 0.0 0.0 0.0 20.0 0.0 0.0 0.0 20.0" Properties=species:S:1:pos:R:3 Time=21.000000
H  -0.641921  0.000000  0.000000
H  0.641921  0.000000  0.000000
2
Lattice="20.0 0.0 0.0 0.0 20.0 0.0 0.0 0.0 20.0" Properties=species:S:1:pos:R:3 Time=21.500000
H  -0.644246  0.000000  0.000000
H  0.644246  0.000000  0.000000
2
Lattice="20.0 0.0 0.0 0.0 20.0 0.0 0.0 0.0 20.0" Properties=species:S:1:pos:R:3 Time=22.000000
H  -0.626347  0.000000  0.000000
H  0.626347  0.000000  0.000000
2
Lattice="20.0 0.0 0.0 0.0 20.0 0.0 0.0 0.0 20.0" Properties=species:S:1:pos:R:3 Time=22.500000
H  -0.657003  0.000000  0.000000
H  0.657003  0.000000  0.000000
2
Lattice="20.0 0.0 0.0 0.0 20.0 0.0 0.0 0.0 20.0" Properties=species:S:1:pos:R:3 Time=23.000000
H  -0.615721  0.000000  0.000000
H  0.615721  0.000000  0.000000
2
Lattice="20.0 0.0 0.0 0.0 20.0 0.0 0.0 0.0 20.0" Properties=species:S:1:pos:R:3 Time=23.500000
H  -0.661996  0.000000  0.000000
H  0.661996  0.000000  0.000000
2
Lattice="20.0 0.0 0.0 0.0 20.0 0.0 0.0 0.0 20.0" Properties=species:S:1:pos:R:3 Time=24.000000
H  -0.615405  0.000000  0.000000
H  0.615405  0.000000  0.000000
2
Lattice="20.0 0.0 0.0 0.0 20.0 0.0 0.0 0.0 20.0" Properties=species:S:1:pos:R:3 Time=24.500000
H  -0.657512  0.000000  0.000000
H  0.657512  0.000000  0.000000
2
Lattice="20.0 0.0 0.0 0.0 20.0 0.0 0.0 0.0 20.0" Properties=species:S:1:pos:R:3 Time=25.000000
H  -0.625566  0.000000  0.000000
H  0.625566  0.000000  0.000000
2
Lattice="20.0 0.0 0.0 0.0 20.0 0.0 0.0 0.0 20.0" Properties=species:S:1:pos:R:3 Time=25.500000
H  -0.645085  0.000000  0.000000
H  0.645085  0.000000  0.000000
2
Lattice="20.0 0.0 0.0 0.0 20.0 0.0 0.0 0.0 20.0" Properties=species:S:1:pos:R:3 Time=26.000000
H  -0.641052  0.000000  0.000000
H  0.641052  0.000000  0.000000
2
Lattice="20.0 0.0 0.0 0.0 20.0 0.0 0.0 0.0 20.0" Properties=species:S:1:pos:R:3 Time=26.500000
H  -0.629376  0.000000  0.000000
H  0.629376  0.000000  0.000000
2
Lattice="20.0 0.0 0.0 0.0 20.0 0.0 0.0 0.0 20.0" Properties=species:S:1:pos:R:3 Time=27.000000
H  -0.654900  0.000000  0.000000
H  0.654900  0.000000  0.000000
2
Lattice="20.0 0.0 0.0 0.0 20.0 0.0 0.0 0.0 20.0" Properties=species:S:1:pos:R:3 Time=27.500000
H  -0.617180  0.000000  0.000000
H  0.617180  0.000000  0.000000
2
Lattice="20.0 0.0 0.0 0.0 20.0 0.0 0.0 0.0 20.0" Properties=species:S:1:pos:R:3 Time=28.000000
H  -0.661735  0.000000  0.000000
H  0.661735  0.000000  0.000000
2
Lattice="20.0 0.0 0.0 0.0 20.0 0.0 0.0 0.0 20.0" Properties=species:S:1:pos:R:3 Time=28.500000
H  -0.614527  0.000000  0.000000
H  0.614527  0.000000  0.000000
2
Lattice="20.0 0.0 0.0 0.0 20.0 0.0 0.0 0.0 20.0" Properties=species:S:1:pos:R:3 Time=29.000000
H  -0.659180  0.000000  0.000000
H  0.659180  0.000000  0.000000
2
Lattice="20.0 0.0 0.0 0.0 20.0 0.0 0.0 0.0 20.0" Properties=species:S:1:pos:R:3 Time=29.500000
H  -0.622820  0.000000  0.000000
H  0.622820  0.000000  0.000000
2
Lattice="20.0 0.0 0.0 0.0 20.0 0.0 0.0 0.0 20.0" Properties=species:S:1:pos:R:3 Time=30.000000
H  -0.648102  0.000000  0.000000
H  0.648102  0.000000  0.000000
2
Lattice="20.0 0.0 0.0 0.0 20.0 0.0 0.0 0.0 20.0" Properties=species:S:1:pos:R:3 Time=30.500000
H  -0.637782  0.000000  0.000000
H  0.637782  0.000000  0.000000
2
Lattice="20.0 0.0 0.0 0.0 20.0 0.0 0.0 0.0 20.0" Properties=species:S:1:pos:R:3 Time=31.000000
H  -0.632555  0.000000  0.000000
H  0.632555  0.000000  0.000000
2
Lattice="20.0 0.0 0.0 0.0 20.0 0.0 0.0 0.0 20.0" Properties=species:S:1:pos:R:3 Time=31.500000
H  -0.652490  0.000000  0.000000
H  0.652490  0.000000  0.000000
2
Lattice="20.0 0.0 0.0 0.0 20.0 0.0 0.0 0.0 20.0" Properties=species:S:1:pos:R:3 Time=32.000000
H  -0.619060  0.000000  0.000000
H  0.619060  0.000000  0.000000
2
Lattice="20.0 0.0 0.0 0.0 20.0 0.0 0.0 0.0 20.0" Properties=species:S:1:pos:R:3 Time=32.500000
H  -0.661067  0.000000  0.000000
H  0.661067  0.000000  0.000000
2
Lattice="20.0 0.0 0.0 0.0 20.0 0.0 0.0 0.0 20.0" Properties=species:S:1:pos:R:3 Time=33.000000
H  -0.614133  0.000000  0.000000
H  0.614133  0.000000  0.000000
2
Lattice="20.0 0.0 0.0 0.0 20.0 0.0 0.0 0.0 20.0" Properties=species:S:1:pos:R:3 Time=33.500000
H  -0.660477  0.000000  0.000000
H  0.660477  0.000000  0.000000
2
Lattice="20.0 0.0 0.0 0.0 20.0 0.0 0.0 0.0 20.0" Properties=species:S:1:pos:R:3 Time=34.000000
H  -0.620364  0.000000  0.000000
H  0.620364  0.000000  0.000000
2
Lattice="20.0 0.0 0.0 0.0 20.0 0.0 0.0 0.0 20.0" Properties=species:S:1:pos:R:3 Time=34.500000
H  -0.650922  0.000000  0.000000
H  0.650922  0.000000  0.000000
2
Lattice="20.0 0.0 0.0 0.0 20.0 0.0 0.0 0.0 20.0" Properties=species:S:1:pos:R:3 Time=35.000000
H  -0.634497  0.000000  0.000000
H  0.634497  0.000000  0.000000
2
Lattice="20.0 0.0 0.0 0.0 20.0 0.0 0.0 0.0 20.0" Properties=species:S:1:pos:R:3 Time=35.500000
H  -0.635820  0.000000  0.000000
H  0.635820  0.000000  0.000000
2
Lattice="20.0 0.0 0.0 0.0 20.0 0.0 0.0 0.0 20.0" Properties=species:S:1:pos:R:3 Time=36.000000
H  -0.649812  0.000000  0.000000
H  0.649812  0.000000  0.000000
2
Lattice="20.0 0.0 0.0 0.0 20.0 0.0 0.0 0.0 20.0" Properties=species:S:1:pos:R:3 Time=36.500000
H  -0.621316  0.000000  0.000000
H  0.621316  0.000000  0.000000
2
Lattice="20.0 0.0 0.0 0.0 20.0 0.0 0.0 0.0 20.0" Properties=species:S:1:pos:R:3 Time=37.000000
H  -0.660000  0.000000  0.000000
H  0.660000  0.000000  0.000000
2
Lattice="20.0 0.0 0.0 0.0 20.0 0.0 0.0 0.0 20.0" Properties=species:S:1:pos:R:3 Time=37.500000
H  -0.614233  0.000000  0.000000
H  0.614233  0.000000  0.000000
2
Lattice="20.0 0.0 0.0 0.0 20.0 0.0 0.0 0.0 20.0" Properties=species:S:1:pos:R:3 Time=38.000000
H  -0.661385  0.000000  0.000000
H  0.661385  0.000000  0.000000
2
Lattice="20.0 0.0 0.0 0.0 20.0 0.0 0.0 0.0 20.0" Properties=species:S:1:pos:R:3 Time=38.500000
H  -0.618254  0.000000  0.000000
H  0.618254  0.000000  0.000000
2
Lattice="20.0 0.0 0.0 0.0 20.0 0.0 0.0 0.0 20.0" Properties=species:S:1:pos:R:3 Time=39.000000
H  -0.653497  0.000000  0.000000
H  0.653497  0.000000  0.000000
2
Lattice="20.0 0.0 0.0 0.0 20.0 0.0 0.0 0.0 20.0" Properties=species:S:1:pos:R:3 Time=39.500000
H  -0.631259  0.000000  0.000000
H  0.631259  0.000000  0.000000
2
Lattice="20.0 0.0 0.0 0.0 20.0 0.0 0.0 0.0 20.0" Properties=species:S:1:pos:R:3 Time=40.000000
H  -0.639106  0.000000  0.000000
H  0.639106  0.000000  0.000000
2
Lattice="20.0 0.0 0.0 0.0 20.0 0.0 0.0 0.0 20.0" Properties=species:S:1:pos:R:3 Time=40.500000
H  -0.646907  0.000000  0.000000
H  0.646907  0.000000  0.000000
2
Lattice="20.0 0.0 0.0 0.0 20.0 0.0 0.0 0.0 20.0" Properties=species:S:1:pos:R:3 Time=41.000000
H  -0.623896  0.000000  0.000000
H  0.623896  0.000000  0.000000
2
Lattice="20.0 0.0 0.0 0.0 20.0 0.0 0.0 0.0 20.0" Properties=species:S:1:pos:R:3 Time=41.500000
H  -0.658551  0.000000  0.000000
H  0.658551  0.000000  0.000000
2
Lattice="20.0 0.0 0.0 0.0 20.0 0.0 0.0 0.0 20.0" Properties=species:S:1:pos:R:3 Time=42.000000
H  -0.614824  0.000000  0.000000
H  0.614824  0.000000  0.000000
2
Lattice="20.0 0.0 0.0 0.0 20.0 0.0 0.0 0.0 20.0" Properties=species:S:1:pos:R:3 Time=42.500000
H  -0.661890  0.000000  0.000000
H  0.661890  0.000000  0.000000
2
Lattice="20.0 0.0 0.0 0.0 20.0 0.0 0.0 0.0 20.0" Properties=species:S:1:pos:R:3 Time=43.000000
H  -0.616539  0.000000  0.000000
H  0.616539  0.000000  0.000000
2
Lattice="20.0 0.0 0.0 0.0 20.0 0.0 0.0 0.0 20.0" Properties=species:S:1:pos:R:3 Time=43.500000
H  -0.655787  0.000000  0.000000
H  0.655787  0.000000  0.000000
2
Lattice="20.0 0.0 0.0 0.0 20.0 0.0 0.0 0.0 20.0" Properties=species:S:1:pos:R:3 Time=44.000000
H  -0.628132  0.000000  0.000000
H  0.628132  0.000000  0.000000
2
Lattice="20.0 0.0 0.0 0.0 20.0 0.0 0.0 0.0 20.0" Properties=species:S:1:pos:R:3 Time=44.500000
H  -0.642353  0.000000  0.000000
H  0.642353  0.000000  0.000000
2
Lattice="20.0 0.0 0.0 0.0 20.0 0.0 0.0 0.0 20.0" Properties=species:S:1:pos:R:3 Time=45.000000
H  -0.643823  0.000000  0.000000
H  0.643823  0.000000  0.000000
2
Lattice="20.0 0.0 0.0 0.0 20.0 0.0 0.0 0.0 20.0" Properties=species:S:1:pos:R:3 Time=45.500000
H  -0.626743  0.000000  0.000000
H  0.626743  0.000000  0.000000
2
Lattice="20.0 0.0 0.0 0.0 20.0 0.0 0.0 0.0 20.0" Properties=species:S:1:pos:R:3 Time=46.000000
H  -0.656739  0.000000  0.000000
H  0.656739  0.000000  0.000000
2
Lattice="20.0 0.0 0.0 0.0 20.0 0.0 0.0 0.0 20.0" Properties=species:S:1:pos:R:3 Time=46.500000
H  -0.615891  0.000000  0.000000
H  0.615891  0.000000  0.000000
2
Lattice="20.0 0.0 0.0 0.0 20.0 0.0 0.0 0.0 20.0" Properties=species:S:1:pos:R:3 Time=47.000000
H  -0.661985  0.000000  0.000000
H  0.661985  0.000000  0.000000
2
Lattice="20.0 0.0 0.0 0.0 20.0 0.0 0.0 0.0 20.0" Properties=species:S:1:pos:R:3 Time=47.500000
H  -0.615259  0.000000  0.000000
H  0.615259  0.000000  0.000000
2
Lattice="20.0 0.0 0.0 0.0 20.0 0.0 0.0 0.0 20.0" Properties=species:S:1:pos:R:3 Time=48.000000
H  -0.657757  0.000000  0.000000
H  0.657757  0.000000  0.000000
2
Lattice="20.0 0.0 0.0 0.0 20.0 0.0 0.0 0.0 20.0" Properties=species:S:1:pos:R:3 Time=48.500000
H  -0.625182  0.000000  0.000000
H  0.625182  0.000000  0.000000
2
Lattice="20.0 0.0 0.0 0.0 20.0 0.0 0.0 0.0 20.0" Properties=species:S:1:pos:R:3 Time=49.000000
H  -0.645500  0.000000  0.000000
H  0.645500  0.000000  0.000000
2
Lattice="20.0 0.0 0.0 0.0 20.0 0.0 0.0 0.0 20.0" Properties=species:S:1:pos:R:3 Time=49.500000
H  -0.640616  0.000000  0.000000
H  0.640616  0.000000  0.000000
2
Lattice="20.0 0.0 0.0 0.0 20.0 0.0 0.0 0.0 20.0" Properties=species:S:1:pos:R:3 Time=50.000000
H  -0.629796  0.000000  0.000000
H  0.629796  0.000000  0.000000
2
Lattice="20.0 0.0 0.0 0.0 20.0 0.0 0.0 0.0 20.0" Properties=species:S:1:pos:R:3 Time=50.500000
H  -0.654593  0.000000  0.000000
H  0.654593  0.000000  0.000000
2
Lattice="20.0 0.0 0.0 0.0 20.0 0.0 0.0 0.0 20.0" Properties=species:S:1:pos:R:3 Time=51.000000
H  -0.617409  0.000000  0.000000
H  0.617409  0.000000  0.000000
2
Lattice="20.0 0.0 0.0 0.0 20.0 0.0 0.0 0.0 20.0" Properties=species:S:1:pos:R:3 Time=51.500000
H  -0.661669  0.000000  0.000000
H  0.661669  0.000000  0.000000
2
Lattice="20.0 0.0 0.0 0.0 20.0 0.0 0.0 0.0 20.0" Properties=species:S:1:pos:R:3 Time=52.000000
H  -0.614446  0.000000  0.000000
H  0.614446  0.000000  0.000000
2
Lattice="20.0 0.0 0.0 0.0 20.0 0.0 0.0 0.0 20.0" Properties=species:S:1:pos:R:3 Time=52.500000
H  -0.659376  0.000000  0.000000
H  0.659376  0.000000  0.000000
2
Lattice="20.0 0.0 0.0 0.0 20.0 0.0 0.0 0.0 20.0" Properties=species:S:1:pos:R:3 Time=53.000000
H  -0.622471  0.000000  0.000000
H  0.622471  0.000000  0.000000
2
Lattice="20.0 0.0 0.0 0.0 20.0 0.0 0.0 0.0 20.0" Properties=species:S:1:pos:R:3 Time=53.500000
H  -0.648494  0.000000  0.000000
H  0.648494  0.000000  0.000000
2
Lattice="20.0 0.0 0.0 0.0 20.0 0.0 0.0 0.0 20.0" Properties=species:S:1:pos:R:3 Time=54.000000
H  -0.637340  0.000000  0.000000
H  0.637340  0.000000  0.000000
2
Lattice="20.0 0.0 0.0 0.0 20.0 0.0 0.0 0.0 20.0" Properties=species:S:1:pos:R:3 Time=54.500000
H  -0.632990  0.000000  0.000000
H  0.632990  0.000000  0.000000
2
Lattice="20.0 0.0 0.0 0.0 20.0 0.0 0.0 0.0 20.0" Properties=species:S:1:pos:R:3 Time=55.000000
H  -0.652145  0.000000  0.000000
H  0.652145  0.000000  0.000000
2
Lattice="20.0 0.0 0.0 0.0 20.0 0.0 0.0 0.0 20.0" Properties=species:S:1:pos:R:3 Time=55.500000
H  -0.619342  0.000000  0.000000
H  0.619342  0.000000  0.000000
2
Lattice="20.0 0.0 0.0 0.0 20.0 0.0 0.0 0.0 20.0" Properties=species:S:1:pos:R:3 Time=56.000000
H  -0.660946  0.000000  0.000000
H  0.660946  0.000000  0.000000
2
Lattice="20.0 0.0 0.0 0.0 20.0 0.0 0.0 0.0 20.0" Properties=species:S:1:pos:R:3 Time=56.500000
H  -0.614118  0.000000  0.000000
H  0.614118  0.000000  0.000000
2
Lattice="20.0 0.0 0.0 0.0 20.0 0.0 0.0 0.0 20.0" Properties=species:S:1:pos:R:3 Time=57.000000
H  -0.660622  0.000000  0.000000
H  0.660622  0.000000  0.000000
2
Lattice="20.0 0.0 0.0 0.0 20.0 0.0 0.0 0.0 20.0" Properties=species:S:1:pos:R:3 Time=57.500000
H  -0.620059  0.000000  0.000000
H  0.620059  0.000000  0.000000
2
Lattice="20.0 0.0 0.0 0.0 20.0 0.0 0.0 0.0 20.0" Properties=species:S:1:pos:R:3 Time=58.000000
H  -0.651283  0.000000  0.000000
H  0.651283  0.000000  0.000000
2
Lattice="20.0 0.0 0.0 0.0 20.0 0.0 0.0 0.0 20.0" Properties=species:S:1:pos:R:3 Time=58.500000
H  -0.634057  0.000000  0.000000
H  0.634057  0.000000  0.000000
2
Lattice="20.0 0.0 0.0 0.0 20.0 0.0 0.0 0.0 20.0" Properties=species:S:1:pos:R:3 Time=59.000000
H  -0.636262  0.000000  0.000000
H  0.636262  0.000000  0.000000
2
Lattice="20.0 0.0 0.0 0.0 20.0 0.0 0.0 0.0 20.0" Properties=species:S:1:pos:R:3 Time=59.500000
H  -0.649433  0.000000  0.000000
H  0.649433  0.000000  0.000000
2
Lattice="20.0 0.0 0.0 0.0 20.0 0.0 0.0 0.0 20.0" Properties=species:S:1:pos:R:3 Time=60.000000
H  -0.621645  0.000000  0.000000
H  0.621645  0.000000  0.000000
2
Lattice="20.0 0.0 0.0 0.0 20.0 0.0 0.0 0.0 20.0" Properties=species:S:1:pos:R:3 Time=60.500000
H  -0.659827  0.000000  0.000000
H  0.659827  0.000000  0.000000
2
Lattice="20.0 0.0 0.0 0.0 20.0 0.0 0.0 0.0 20.0" Properties=species:S:1:pos:R:3 Time=61.000000
H  -0.614284  0.000000  0.000000
H  0.614284  0.000000  0.000000
2
Lattice="20.0 0.0 0.0 0.0 20.0 0.0 0.0 0.0 20.0" Properties=species:S:1:pos:R:3 Time=61.500000
H  -0.661477  0.000000  0.000000
H  0.661477  0.000000  0.000000
2
Lattice="20.0 0.0 0.0 0.0 20.0 0.0 0.0 0.0 20.0" Properties=species:S:1:pos:R:3 Time=62.000000
H  -0.617999  0.000000  0.000000
H  0.617999  0.000000  0.000000
2
Lattice="20.0 0.0 0.0 0.0 20.0 0.0 0.0 0.0 20.0" Properties=species:S:1:pos:R:3 Time=62.500000
H  -0.653822  0.000000  0.000000
H  0.653822  0.000000  0.000000
2
Lattice="20.0 0.0 0.0 0.0 20.0 0.0 0.0 0.0 20.0" Properties=species:S:1:pos:R:3 Time=63.000000
H  -0.630830  0.000000  0.000000
H  0.630830  0.000000  0.000000
2
Lattice="20.0 0.0 0.0 0.0 20.0 0.0 0.0 0.0 20.0" Properties=species:S:1:pos:R:3 Time=63.500000
H  -0.639546  0.000000  0.000000
H  0.639546  0.000000  0.000000
2
Lattice="20.0 0.0 0.0 0.0 20.0 0.0 0.0 0.0 20.0" Properties=species:S:1:pos:R:3 Time=64.000000
H  -0.646501  0.000000  0.000000
H  0.646501  0.000000  0.000000
2
Lattice="20.0 0.0 0.0 0.0 20.0 0.0 0.0 0.0 20.0" Properties=species:S:1:pos:R:3 Time=64.500000
H  -0.624264  0.000000  0.000000
H  0.624264  0.000000  0.000000
2
Lattice="20.0 0.0 0.0 0.0 20.0 0.0 0.0 0.0 20.0" Properties=species:S:1:pos:R:3 Time=65.000000
H  -0.658328  0.000000  0.000000
H  0.658328  0.000000  0.000000
2
Lattice="20.0 0.0 0.0 0.0 20.0 0.0 0.0 0.0 20.0" Properties=species:S:1:pos:R:3 Time=65.500000
H  -0.614940  0.000000  0.000000
H  0.614940  0.000000  0.000000
2
Lattice="20.0 0.0 0.0 0.0 20.0 0.0 0.0 0.0 20.0" Properties=species:S:1:pos:R:3 Time=66.000000
H  -0.661927  0.000000  0.000000
H  0.661927  0.000000  0.000000
2
Lattice="20.0 0.0 0.0 0.0 20.0 0.0 0.0 0.0 20.0" Properties=species:S:1:pos:R:3 Time=66.500000
H  -0.616341  0.000000  0.000000
H  0.616341  0.000000  0.000000
2
Lattice="20.0 0.0 0.0 0.0 20.0 0.0 0.0 0.0 20.0" Properties=species:S:1:pos:R:3 Time=67.000000
H  -0.656071  0.000000  0.000000
H  0.656071  0.000000  0.000000
2
Lattice="20.0 0.0 0.0 0.0 20.0 0.0 0.0 0.0 20.0" Properties=species:S:1:pos:R:3 Time=67.500000
H  -0.627724  0.000000  0.000000
H  0.627724  0.000000  0.000000
2
Lattice="20.0 0.0 0.0 0.0 20.0 0.0 0.0 0.0 20.0" Properties=species:S:1:pos:R:3 Time=68.000000
H  -0.642783  0.000000  0.000000
H  0.642783  0.000000  0.000000
2
Lattice="20.0 0.0 0.0 0.0 20.0 0.0 0.0 0.0 20.0" Properties=species:S:1:pos:R:3 Time=68.500000
H  -0.643398  0.000000  0.000000
H  0.643398  0.000000  0.000000
2
Lattice="20.0 0.0 0.0 0.0 20.0 0.0 0.0 0.0 20.0" Properties=species:S:1:pos:R:3 Time=69.000000
H  -0.627143  0.000000  0.000000
H  0.627143  0.000000  0.000000
2
Lattice="20.0 0.0 0.0 0.0 20.0 0.0 0.0 0.0 20.0" Properties=species:S:1:pos:R:3 Time=69.500000
H  -0.656470  0.000000  0.000000
H  0.656470  0.000000  0.000000
2
Lattice="20.0 0.0 0.0 0.0 20.0 0.0 0.0 0.0 20.0" Properties=species:S:1:pos:R:3 Time=70.000000
H  -0.616070  0.000000  0.000000
H  0.616070  0.000000  0.000000
2
Lattice="20.0 0.0 0.0 0.0 20.0 0.0 0.0 0.0 20.0" Properties=species:S:1:pos:R:3 Time=70.500000
H  -0.661967  0.000000  0.000000
H  0.661967  0.000000  0.000000
2
Lattice="20.0 0.0 0.0 0.0 20.0 0.0 0.0 0.0 20.0" Properties=species:S:1:pos:R:3 Time=71.000000
H  -0.615122  0.000000  0.000000
H  0.615122  0.000000  0.000000
2
Lattice="20.0 0.0 0.0 0.0 20.0 0.0 0.0 0.0 20.0" Properties=species:S:1:pos:R:3 Time=71.500000
H  -0.657995  0.000000  0.000000
H  0.657995  0.000000  0.000000
2
Lattice="20.0 0.0 0.0 0.0 20.0 0.0 0.0 0.0 20.0" Properties=species:S:1:pos:R:3 Time=72.000000
H  -0.624803  0.000000  0.000000
H  0.624803  0.000000  0.000000
2
Lattice="20.0 0.0 0.0 0.0 20.0 0.0 0.0 0.0 20.0" Properties=species:S:1:pos:R:3 Time=72.500000
H  -0.645913  0.000000  0.000000
H  0.645913  0.000000  0.000000
2
Lattice="20.0 0.0 0.0 0.0 20.0 0.0 0.0 0.0 20.0" Properties=species:S:1:pos:R:3 Time=73.000000
H  -0.640178  0.000000  0.000000
H  0.640178  0.000000  0.000000
2
Lattice="20.0 0.0 0.0 0.0 20.0 0.0 0.0 0.0 20.0" Properties=species:S:1:pos:R:3 Time=73.500000
H  -0.630218  0.000000  0.000000
H  0.630218  0.000000  0.000000
2
Lattice="20.0 0.0 0.0 0.0 20.0 0.0 0.0 0.0 20.0" Properties=species:S:1:pos:R:3 Time=74.000000
H  -0.654281  0.000000  0.000000
H  0.654281  0.000000  0.000000
2
Lattice="20.0 0.0 0.0 0.0 20.0 0.0 0.0 0.0 20.0" Properties=species:S:1:pos:R:3 Time=74.500000
H  -0.617646  0.000000  0.000000
H  0.617646  0.000000  0.000000
2
Lattice="20.0 0.0 0.0 0.0 20.0 0.0 0.0 0.0 20.0" Properties=species:S:1:pos:R:3 Time=75.000000
H  -0.661595  0.000000  0.000000
H  0.661595  0.000000  0.000000
2
Lattice="20.0 0.0 0.0 0.0 20.0 0.0 0.0 0.0 20.0" Properties=species:S:1:pos:R:3 Time=75.500000
H  -0.614373  0.000000  0.000000
H  0.614373  0.000000  0.000000
2
Lattice="20.0 0.0 0.0 0.0 20.0 0.0 0.0 0.0 20.0" Properties=species:S:1:pos:R:3 Time=76.000000
H  -0.659566  0.000000  0.000000
H  0.659566  0.000000  0.000000
2
Lattice="20.0 0.0 0.0 0.0 20.0 0.0 0.0 0.0 20.0" Properties=species:S:1:pos:R:3 Time=76.500000
H  -0.622128  0.000000  0.000000
H  0.622128  0.000000  0.000000
2
Lattice="20.0 0.0 0.0 0.0 20.0 0.0 0.0 0.0 20.0" Properties=species:S:1:pos:R:3 Time=77.000000
H  -0.648882  0.000000  0.000000
H  0.648882  0.000000  0.000000
2
Lattice="20.0 0.0 0.0 0.0 20.0 0.0 0.0 0.0 20.0" Properties=species:S:1:pos:R:3 Time=77.500000
H  -0.636898  0.000000  0.000000
H  0.636898  0.000000  0.000000
2
Lattice="20.0 0.0 0.0 0.0 20.0 0.0 0.0 0.0 20.0" Properties=species:S:1:pos:R:3 Time=78.000000
H  -0.633427  0.000000  0.000000
H  0.633427  0.000000  0.000000
2
Lattice="20.0 0.0 0.0 0.0 20.0 0.0 0.0 0.0 20.0" Properties=species:S:1:pos:R:3 Time=78.500000
H  -0.651795  0.000000  0.000000
H  0.651795  0.000000  0.000000
2
Lattice="20.0 0.0 0.0 0.0 20.0 0.0 0.0 0.0 20.0" Properties=species:S:1:pos:R:3 Time=79.000000
H  -0.619631  0.000000  0.000000
H  0.619631  0.000000  0.000000
2
Lattice="20.0 0.0 0.0 0.0 20.0 0.0 0.0 0.0 20.0" Properties=species:S:1:pos:R:3 Time=79.500000
H  -0.660819  0.000000  0.000000
H  0.660819  0.000000  0.000000
2
Lattice="20.0 0.0 0.0 0.0 20.0 0.0 0.0 0.0 20.0" Properties=species:S:1:pos:R:3 Time=80.000000
H  -0.614112  0.000000  0.000000
H  0.614112  0.000000  0.000000
2
Lattice="20.0 0.0 0.0 0.0 20.0 0.0 0.0 0.0 20.0" Properties=species:S:1:pos:R:3 Time=80.500000
H  -0.660760  0.000000  0.000000
H  0.660760  0.000000  0.000000
2
Lattice="20.0 0.0 0.0 0.0 20.0 0.0 0.0 0.0 20.0" Properties=species:S:1:pos:R:3 Time=81.000000
H  -0.619760  0.000000  0.000000
H  0.619760  0.000000  0.000000
2
Lattice="20.0 0.0 0.0 0.0 20.0 0.0 0.0 0.0 20.0" Properties=species:S:1:pos:R:3 Time=81.500000
H  -0.651640  0.000000  0.000000
H  0.651640  0.000000  0.000000
2
Lattice="20.0 0.0 0.0 0.0 20.0 0.0 0.0 0.0 20.0" Properties=species:S:1:pos:R:3 Time=82.000000
H  -0.633619  0.000000  0.000000
H  0.633619  0.000000  0.000000
2
Lattice="20.0 0.0 0.0 0.0 20.0 0.0 0.0 0.0 20.0" Properties=species:S:1:pos:R:3 Time=82.500000
H  -0.636704  0.000000  0.000000
H  0.636704  0.000000  0.000000
2
Lattice="20.0 0.0 0.0 0.0 20.0 0.0 0.0 0.0 20.0" Properties=species:S:1:pos:R:3 Time=83.000000
H  -0.649051  0.000000  0.000000
H  0.649051  0.000000  0.000000
2
Lattice="20.0 0.0 0.0 0.0 20.0 0.0 0.0 0.0 20.0" Properties=species:S:1:pos:R:3 Time=83.500000
H  -0.621980  0.000000  0.000000
H  0.621980  0.000000  0.000000
2
Lattice="20.0 0.0 0.0 0.0 20.0 0.0 0.0 0.0 20.0" Properties=species:S:1:pos:R:3 Time=84.000000
H  -0.659647  0.000000  0.000000
H  0.659647  0.000000  0.000000
2
Lattice="20.0 0.0 0.0 0.0 20.0 0.0 0.0 0.0 20.0" Properties=species:S:1:pos:R:3 Time=84.500000
H  -0.614344  0.000000  0.000000
H  0.614344  0.000000  0.000000
2
Lattice="20.0 0.0 0.0 0.0 20.0 0.0 0.0 0.0 20.0" Properties=species:S:1:pos:R:3 Time=85.000000
H  -0.661561  0.000000  0.000000
H  0.661561  0.000000  0.000000
2
Lattice="20.0 0.0 0.0 0.0 20.0 0.0 0.0 0.0 20.0" Properties=species:S:1:pos:R:3 Time=85.500000
H  -0.617752  0.000000  0.000000
H  0.617752  0.000000  0.000000
2
Lattice="20.0 0.0 0.0 0.0 20.0 0.0 0.0 0.0 20.0" Properties=species:S:1:pos:R:3 Time=86.000000
H  -0.654142  0.000000  0.000000
H  0.654142  0.000000  0.000000
2
Lattice="20.0 0.0 0.0 0.0 20.0 0.0 0.0 0.0 20.0" Properties=species:S:1:pos:R:3 Time=86.500000
H  -0.630404  0.000000  0.000000
H  0.630404  0.000000  0.000000
2
Lattice="20.0 0.0 0.0 0.0 20.0 0.0 0.0 0.0 20.0" Properties=species:S:1:pos:R:3 Time=87.000000
H  -0.639986  0.000000  0.000000
H  0.639986  0.000000  0.000000
2
Lattice="20.0 0.0 0.0 0.0 20.0 0.0 0.0 0.0 20.0" Properties=species:S:1:pos:R:3 Time=87.500000
H  -0.646093  0.000000  0.000000
H  0.646093  0.000000  0.000000
2
Lattice="20.0 0.0 0.0 0.0 20.0 0.0 0.0 0.0 20.0" Properties=species:S:1:pos:R:3 Time=88.000000
H  -0.624638  0.000000  0.000000
H  0.624638  0.000000  0.000000
2
Lattice="20.0 0.0 0.0 0.0 20.0 0.0 0.0 0.0 20.0" Properties=species:S:1:pos:R:3 Time=88.500000
H  -0.658098  0.000000  0.000000
H  0.658098  0.000000  0.000000
2
Lattice="20.0 0.0 0.0 0.0 20.0 0.0 0.0 0.0 20.0" Properties=species:S:1:pos:R:3 Time=89.000000
H  -0.615065  0.000000  0.000000
H  0.615065  0.000000  0.000000
2
Lattice="20.0 0.0 0.0 0.0 20.0 0.0 0.0 0.0 20.0" Properties=species:S:1:pos:R:3 Time=89.500000
H  -0.661956  0.000000  0.000000
H  0.661956  0.000000  0.000000
2
Lattice="20.0 0.0 0.0 0.0 20.0 0.0 0.0 0.0 20.0" Properties=species:S:1:pos:R:3 Time=90.000000
H  -0.616151  0.000000  0.000000
H  0.616151  0.000000  0.000000
2
Lattice="20.0 0.0 0.0 0.0 20.0 0.0 0.0 0.0 20.0" Properties=species:S:1:pos:R:3 Time=90.500000
H  -0.656350  0.000000  0.000000
H  0.656350  0.000000  0.000000
2
Lattice="20.0 0.0 0.0 0.0 20.0 0.0 0.0 0.0 20.0" Properties=species:S:1:pos:R:3 Time=91.000000
H  -0.627319  0.000000  0.000000
H  0.627319  0.000000  0.000000
2
Lattice="20.0 0.0 0.0 0.0 20.0 0.0 0.0 0.0 20.0" Properties=species:S:1:pos:R:3 Time=91.500000
H  -0.643211  0.000000  0.000000
H  0.643211  0.000000  0.000000
2
Lattice="20.0 0.0 0.0 0.0 20.0 0.0 0.0 0.0 20.0" Properties=species:S:1:pos:R:3 Time=92.000000
H  -0.642971  0.000000  0.000000
H  0.642971  0.000000  0.000000
2