2
Lattice="20.0 0.0 0.0 0.0 20.0 0.0 0.0 0.0 20.0" Properties=species:S:1:pos:R:3 Time=0.000000
H  -0.395500  0.000000  0.000000
H  0.395500  0.000000  0.000000
2
Lattice="20.0 0.0 0.0 0.0 20.0 0.0 0.0 0.0 20.0" Properties=species:S:1:pos:R:3 Time=0.500000
H  -0.358949  0.000000  0.000000
H  0.358949  0.000000  0.000000
2
Lattice="20.0 0.0 0.0 0.0 20.0 0.0 0.0 0.0 20.0" Properties=species:S:1:pos:R:3 Time=1.000000
H  -0.363833  0.000000  0.000000
H  0.363833  0.000000  0.000000
2
Lattice="20.0 0.0 0.0 0.0 20.0 0.0 0.0 0.0 20.0" Properties=species:S:1:pos:R:3 Time=1.500000
H  -0.394968  0.000000  0.000000
H  0.394968  0.000000  0.000000
2
Lattice="20.0 0.0 0.0 0.0 20.0 0.0 0.0 0.0 20.0" Properties=species:S:1:pos:R:3 Time=2.000000
H  -0.354673  0.000000  0.000000
H  0.354673  0.000000  0.000000
2
Lattice="20.0 0.0 0.0 0.0 20.0 0.0 0.0 0.0 20.0" Properties=species:S:1:pos:R:3 Time=2.500000
H  -0.369056  0.000000  0.000000
H  0.369056  0.000000  0.000000
2
Lattice="20.0 0.0 0.0 0.0 20.0 0.0 0.0 0.0 20.0" Properties=species:S:1:pos:R:3 Time=3.000000
H  -0.393392  0.000000  0.000000
H  0.393392  0.000000  0.000000
2
Lattice="20.0 0.0 0.0 0.0 20.0 0.0 0.0 0.0 20.0" Properties=species:S:1:pos:R:3 Time=3.500000
H  -0.351252  0.000000  0.000000
H  0.351252  0.000000  0.000000
2
Lattice="20.0 0.0 0.0 0.0 20.0 0.0 0.0 0.0 20.0" Properties=species:S:1:pos:R:3 Time=4.000000
H  -0.374346  0.000000  0.000000
H  0.374346  0.000000  0.000000
2
Lattice="20.0 0.0 0.0 0.0 20.0 0.0 0.0 0.0 20.0" Properties=species:S:1:pos:R:3 Time=4.500000
H  -0.390829  0.000000  0.000000
H  0.390829  0.000000  0.000000
2
Lattice="20.0 0.0 0.0 0.0 20.0 0.0 0.0 0.0 20.0" Properties=species:S:1:pos:R:3 Time=5.000000
H  -0.348895  0.000000  0.000000
H  0.348895  0.000000  0.000000
2
Lattice="20.0 0.0 0.0 0.0 20.0 0.0 0.0 0.0 20.0" Properties=species:S:1:pos:R:3 Time=5.500000
H  -0.379448  0.000000  0.000000
H  0.379448  0.000000  0.000000
2
Lattice="20.0 0.0 0.0 0.0 20.0 0.0 0.0 0.0 20.0" Properties=species:S:1:pos:R:3 Time=6.000000
H  -0.387375  0.000000  0.000000
H  0.387375  0.000000  0.000000
2
Lattice="20.0 0.0 0.0 0.0 20.0 0.0 0.0 0.0 20.0" Properties=species:S:1:pos:R:3 Time=6.500000
H  -0.347749  0.000000  0.000000
H  0.347749  0.000000  0.000000
2
Lattice="20.0 0.0 0.0 0.0 20.0 0.0 0.0 0.0 20.0" Properties=species:S:1:pos:R:3 Time=7.000000
H  -0.384129  0.000000  0.000000
H  0.384129  0.000000  0.000000
2
Lattice="20.0 0.0 0.0 0.0 20.0 0.0 0.0 0.0 20.0" Properties=species:S:1:pos:R:3 Time=7.500000
H  -0.383168  0.000000  0.000000
H  0.383168  0.000000  0.000000
2
Lattice="20.0 0.0 0.0 0.0 20.0 0.0 0.0 0.0 20.0" Properties=species:S:1:pos:R:3 Time=8.000000
H  -0.347889  0.000000  0.000000
H  0.347889  0.000000  0.000000
2
Lattice="20.0 0.0 0.0 0.0 20.0 0.0 0.0 0.0 20.0" Properties=species:S:1:pos:R:3 Time=8.500000
H  -0.388188  0.000000  0.000000
H  0.388188  0.000000  0.000000
2
Lattice="20.0 0.0 0.0 0.0 20.0 0.0 0.0 0.0 20.0" Properties=species:S:1:pos:R:3 Time=9.000000
H  -0.378378  0.000000  0.000000
H  0.378378  0.000000  0.000000
2
Lattice="20.0 0.0 0.0 0.0 20.0 0.0 0.0 0.0 20.0" Properties=species:S:1:pos:R:3 Time=9.500000
H  -0.349304  0.000000  0.000000
H  0.349304  0.000000  0.000000
2
Lattice="20.0 0.0 0.0 0.0 20.0 0.0 0.0 0.0 20.0" Properties=species:S:1:pos:R:3 Time=10.000000
H  -0.391460  0.000000  0.000000
H  0.391460  0.000000  0.000000
2
Lattice="20.0 0.0 0.0 0.0 20.0 0.0 0.0 0.0 20.0" Properties=species:S:1:pos:R:3 Time=10.500000
H  -0.373214  0.000000  0.000000
H  0.373214  0.000000  0.000000
2
Lattice="20.0 0.0 0.0 0.0 20.0 0.0 0.0 0.0 20.0" Properties=species:S:1:pos:R:3 Time=11.000000
H  -0.351905  0.000000  0.000000
H  0.351905  0.000000  0.000000
2
Lattice="20.0 0.0 0.0 0.0 20.0 0.0 0.0 0.0 20.0" Properties=species:S:1:pos:R:3 Time=11.500000
H  -0.393817  0.000000  0.000000
H  0.393817  0.000000  0.000000
2
Lattice="20.0 0.0 0.0 0.0 20.0 0.0 0.0 0.0 20.0" Properties=species:S:1:pos:R:3 Time=12.000000
H  -0.367916  0.000000  0.000000
H  0.367916  0.000000  0.000000
2
Lattice="20.0 0.0 0.0 0.0 20.0 0.0 0.0 0.0 20.0" Properties=species:S:1:pos:R:3 Time=12.500000
H  -0.355530  0.000000  0.000000
H  0.355530  0.000000  0.000000
2
Lattice="20.0 0.0 0.0 0.0 20.0 0.0 0.0 0.0 20.0" Properties=species:S:1:pos:R:3 Time=13.000000
H  -0.395172  0.000000  0.000000
H  0.395172  0.000000  0.000000
2
Lattice="20.0 0.0 0.0 0.0 20.0 0.0 0.0 0.0 20.0" Properties=species:S:1:pos:R:3 Time=13.500000
H  -0.362743  0.000000  0.000000
H  0.362743  0.000000  0.000000
2
Lattice="20.0 0.0 0.0 0.0 20.0 0.0 0.0 0.0 20.0" Properties=species:S:1:pos:R:3 Time=14.000000
H  -0.359959  0.000000  0.000000
H  0.359959  0.000000  0.000000
2
Lattice="20.0 0.0 0.0 0.0 20.0 0.0 0.0 0.0 20.0" Properties=species:S:1:pos:R:3 Time=14.500000
H  -0.395475  0.000000  0.000000
H  0.395475  0.000000  0.000000
2
Lattice="20.0 0.0 0.0 0.0 20.0 0.0 0.0 0.0 20.0" Properties=species:S:1:pos:R:3 Time=15.000000
H  -0.357968  0.000000  0.000000
H  0.357968  0.000000  0.000000
2
Lattice="20.0 0.0 0.0 0.0 20.0 0.0 0.0 0.0 20.0" Properties=species:S:1:pos:R:3 Time=15.500000
H  -0.364939  0.000000  0.000000
H  0.364939  0.000000  0.000000
2
Lattice="20.0 0.0 0.0 0.0 20.0 0.0 0.0 0.0 20.0" Properties=species:S:1:pos:R:3 Time=16.000000
H  -0.394715  0.000000  0.000000
H  0.394715  0.000000  0.000000
2
Lattice="20.0 0.0 0.0 0.0 20.0 0.0 0.0 0.0 20.0" Properties=species:S:1:pos:R:3 Time=16.500000
H  -0.353856  0.000000  0.000000
H  0.353856  0.000000  0.000000
2
Lattice="20.0 0.0 0.0 0.0 20.0 0.0 0.0 0.0 20.0" Properties=species:S:1:pos:R:3 Time=17.000000
H  -0.370198  0.000000  0.000000
H  0.370198  0.000000  0.000000
2
Lattice="20.0 0.0 0.0 0.0 20.0 0.0 0.0 0.0 20.0" Properties=species:S:1:pos:R:3 Time=17.500000
H  -0.392920  0.000000  0.000000
H  0.392920  0.000000  0.000000
2
Lattice="20.0 0.0 0.0 0.0 20.0 0.0 0.0 0.0 20.0" Properties=species:S:1:pos:R:3 Time=18.000000
H  -0.350649  0.000000  0.000000
H  0.350649  0.000000  0.000000
2
Lattice="20.0 0.0 0.0 0.0 20.0 0.0 0.0 0.0 20.0" Properties=species:S:1:pos:R:3 Time=18.500000
H  -0.375469  0.000000  0.000000
H  0.375469  0.000000  0.000000
2
Lattice="20.0 0.0 0.0 0.0 20.0 0.0 0.0 0.0 20.0" Properties=species:S:1:pos:R:3 Time=19.000000
H  -0.390156  0.000000  0.000000
H  0.390156  0.000000  0.000000
2
Lattice="20.0 0.0 0.0 0.0 20.0 0.0 0.0 0.0 20.0" Properties=species:S:1:pos:R:3 Time=19.500000
H  -0.348542  0.000000  0.000000
H  0.348542  0.000000  0.000000
2
Lattice="20.0 0.0 0.0 0.0 20.0 0.0 0.0 0.0 20.0" Properties=species:S:1:pos:R:3 Time=20.000000
H  -0.380500  0.000000  0.000000
H  0.380500  0.000000  0.000000
2
Lattice="20.0 0.0 0.0 0.0 20.0 0.0 0.0 0.0 20.0" Properties=species:S:1:pos:R:3 Time=20.500000
H  -0.386528  0.000000  0.000000
H  0.386528  0.000000  0.000000
2
Lattice="20.0 0.0 0.0 0.0 20.0 0.0 0.0 0.0 20.0" Properties=species:S:1:pos:R:3 Time=21.000000
H  -0.347670  0.000000  0.000000
H  0.347670  0.000000  0.000000
2
Lattice="20.0 0.0 0.0 0.0 20.0 0.0 0.0 0.0 20.0" Properties=species:S:1:pos:R:3 Time=21.500000
H  -0.385062  0.000000  0.000000
H  0.385062  0.000000  0.000000
2
Lattice="20.0 0.0 0.0 0.0 20.0 0.0 0.0 0.0 20.0" Properties=species:S:1:pos:R:3 Time=22.000000
H  -0.382179  0.000000  0.000000
H  0.382179  0.000000  0.000000
2
Lattice="20.0 0.0 0.0 0.0 20.0 0.0 0.0 0.0 20.0" Properties=species:S:1:pos:R:3 Time=22.500000
H  -0.348088  0.000000  0.000000
H  0.348088  0.000000  0.000000
2
Lattice="20.0 0.0 0.0 0.0 20.0 0.0 0.0 0.0 20.0" Properties=species:S:1:pos:R:3 Time=23.000000
H  -0.388964  0.000000  0.000000
H  0.388964  0.000000  0.000000
2
Lattice="20.0 0.0 0.0 0.0 20.0 0.0 0.0 0.0 20.0" Properties=species:S:1:pos:R:3 Time=23.500000
H  -0.377290  0.000000  0.000000
H  0.377290  0.000000  0.000000
2
Lattice="20.0 0.0 0.0 0.0 20.0 0.0 0.0 0.0 20.0" Properties=species:S:1:pos:R:3 Time=24.000000
H  -0.349769  0.000000  0.000000
H  0.349769  0.000000  0.000000
2
Lattice="20.0 0.0 0.0 0.0 20.0 0.0 0.0 0.0 20.0" Properties=species:S:1:pos:R:3 Time=24.500000
H  -0.392048  0.000000  0.000000
H  0.392048  0.000000  0.000000
2
Lattice="20.0 0.0 0.0 0.0 20.0 0.0 0.0 0.0 20.0" Properties=species:S:1:pos:R:3 Time=25.000000
H  -0.372076  0.000000  0.000000
H  0.372076  0.000000  0.000000
2
Lattice="20.0 0.0 0.0 0.0 20.0 0.0 0.0 0.0 20.0" Properties=species:S:1:pos:R:3 Time=25.500000
H  -0.352606  0.000000  0.000000
H  0.352606  0.000000  0.000000
2
Lattice="20.0 0.0 0.0 0.0 20.0 0.0 0.0 0.0 20.0" Properties=species:S:1:pos:R:3 Time=26.000000
H  -0.394196  0.000000  0.000000
H  0.394196  0.000000  0.000000
2
Lattice="20.0 0.0 0.0 0.0 20.0 0.0 0.0 0.0 20.0" Properties=species:S:1:pos:R:3 Time=26.500000
H  -0.366782  0.000000  0.000000
H  0.366782  0.000000  0.000000
2
Lattice="20.0 0.0 0.0 0.0 20.0 0.0 0.0 0.0 20.0" Properties=species:S:1:pos:R:3 Time=27.000000
H  -0.356424  0.000000  0.000000
H  0.356424  0.000000  0.000000
2
Lattice="20.0 0.0 0.0 0.0 20.0 0.0 0.0 0.0 20.0" Properties=species:S:1:pos:R:3 Time=27.500000
H  -0.395327  0.000000  0.000000
H  0.395327  0.000000  0.000000
2
Lattice="20.0 0.0 0.0 0.0 20.0 0.0 0.0 0.0 20.0" Properties=species:S:1:pos:R:3 Time=28.000000
H  -0.361672  0.000000  0.000000
H  0.361672  0.000000  0.000000
2
Lattice="20.0 0.0 0.0 0.0 20.0 0.0 0.0 0.0 20.0" Properties=species:S:1:pos:R:3 Time=28.500000
H  -0.360994  0.000000  0.000000
H  0.360994  0.000000  0.000000
2
Lattice="20.0 0.0 0.0 0.0 20.0 0.0 0.0 0.0 20.0" Properties=species:S:1:pos:R:3 Time=29.000000
H  -0.395401  0.000000  0.000000
H  0.395401  0.000000  0.000000
2
Lattice="20.0 0.0 0.0 0.0 20.0 0.0 0.0 0.0 20.0" Properties=species:S:1:pos:R:3 Time=29.500000
H  -0.357018  0.000000  0.000000
H  0.357018  0.000000  0.000000
2
Lattice="20.0 0.0 0.0 0.0 20.0 0.0 0.0 0.0 20.0" Properties=species:S:1:pos:R:3 Time=30.000000
H  -0.366057  0.000000  0.000000
H  0.366057  0.000000  0.000000
2
Lattice="20.0 0.0 0.0 0.0 20.0 0.0 0.0 0.0 20.0" Properties=species:S:1:pos:R:3 Time=30.500000
H  -0.394415  0.000000  0.000000
H  0.394415  0.000000  0.000000
2
Lattice="20.0 0.0 0.0 0.0 20.0 0.0 0.0 0.0 20.0" Properties=species:S:1:pos:R:3 Time=31.000000
H  -0.353081  0.000000  0.000000
H  0.353081  0.000000  0.000000
2
Lattice="20.0 0.0 0.0 0.0 20.0 0.0 0.0 0.0 20.0" Properties=species:S:1:pos:R:3 Time=31.500000
H  -0.371341  0.000000  0.000000
H  0.371341  0.000000  0.000000
2
Lattice="20.0 0.0 0.0 0.0 20.0 0.0 0.0 0.0 20.0" Properties=species:S:1:pos:R:3 Time=32.000000
H  -0.392404  0.000000  0.000000
H  0.392404  0.000000  0.000000
2
Lattice="20.0 0.0 0.0 0.0 20.0 0.0 0.0 0.0 20.0" Properties=species:S:1:pos:R:3 Time=32.500000
H  -0.350096  0.000000  0.000000
H  0.350096  0.000000  0.000000
2
Lattice="20.0 0.0 0.0 0.0 20.0 0.0 0.0 0.0 20.0" Properties=species:S:1:pos:R:3 Time=33.000000
H  -0.376581  0.000000  0.000000
H  0.376581  0.000000  0.000000
2
Lattice="20.0 0.0 0.0 0.0 20.0 0.0 0.0 0.0 20.0" Properties=species:S:1:pos:R:3 Time=33.500000
H  -0.389443  0.000000  0.000000
H  0.389443  0.000000  0.000000
2
Lattice="20.0 0.0 0.0 0.0 20.0 0.0 0.0 0.0 20.0" Properties=species:S:1:pos:R:3 Time=34.000000
H  -0.348247  0.000000  0.000000
H  0.348247  0.000000  0.000000
2
Lattice="20.0 0.0 0.0 0.0 20.0 0.0 0.0 0.0 20.0" Properties=species:S:1:pos:R:3 Time=34.500000
H  -0.381529  0.000000  0.000000
H  0.381529  0.000000  0.000000
2
Lattice="20.0 0.0 0.0 0.0 20.0 0.0 0.0 0.0 20.0" Properties=species:S:1:pos:R:3 Time=35.000000
H  -0.385646  0.000000  0.000000
H  0.385646  0.000000  0.000000
2
Lattice="20.0 0.0 0.0 0.0 20.0 0.0 0.0 0.0 20.0" Properties=species:S:1:pos:R:3 Time=35.500000
H  -0.347650  0.000000  0.000000
H  0.347650  0.000000  0.000000
2
Lattice="20.0 0.0 0.0 0.0 20.0 0.0 0.0 0.0 20.0" Properties=species:S:1:pos:R:3 Time=36.000000
H  -0.385964  0.000000  0.000000
H  0.385964  0.000000  0.000000
2
Lattice="20.0 0.0 0.0 0.0 20.0 0.0 0.0 0.0 20.0" Properties=species:S:1:pos:R:3 Time=36.500000
H  -0.381164  0.000000  0.000000
H  0.381164  0.000000  0.000000
2
Lattice="20.0 0.0 0.0 0.0 20.0 0.0 0.0 0.0 20.0" Properties=species:S:1:pos:R:3 Time=37.000000
H  -0.348345  0.000000  0.000000
H  0.348345  0.000000  0.000000
2
Lattice="20.0 0.0 0.0 0.0 20.0 0.0 0.0 0.0 20.0" Properties=species:S:1:pos:R:3 Time=37.500000
H  -0.389702  0.000000  0.000000
H  0.389702  0.000000  0.000000
2
Lattice="20.0 0.0 0.0 0.0 20.0 0.0 0.0 0.0 20.0" Properties=species:S:1:pos:R:3 Time=38.000000
H  -0.376186  0.000000  0.000000
H  0.376186  0.000000  0.000000
2
Lattice="20.0 0.0 0.0 0.0 20.0 0.0 0.0 0.0 20.0" Properties=species:S:1:pos:R:3 Time=38.500000
H  -0.350287  0.000000  0.000000
H  0.350287  0.000000  0.000000
2
Lattice="20.0 0.0 0.0 0.0 20.0 0.0 0.0 0.0 20.0" Properties=species:S:1:pos:R:3 Time=39.000000
H  -0.392593  0.000000  0.000000
H  0.392593  0.000000  0.000000
2
Lattice="20.0 0.0 0.0 0.0 20.0 0.0 0.0 0.0 20.0" Properties=species:S:1:pos:R:3 Time=39.500000
H  -0.370934  0.000000  0.000000
H  0.370934  0.000000  0.000000
2
Lattice="20.0 0.0 0.0 0.0 20.0 0.0 0.0 0.0 20.0" Properties=species:S:1:pos:R:3 Time=40.000000
H  -0.353353  0.000000  0.000000
H  0.353353  0.000000  0.000000
2
Lattice="20.0 0.0 0.0 0.0 20.0 0.0 0.0 0.0 20.0" Properties=species:S:1:pos:R:3 Time=40.500000
H  -0.394527  0.000000  0.000000
H  0.394527  0.000000  0.000000
2
Lattice="20.0 0.0 0.0 0.0 20.0 0.0 0.0 0.0 20.0" Properties=species:S:1:pos:R:3 Time=41.000000
H  -0.365657  0.000000  0.000000
H  0.365657  0.000000  0.000000
2
Lattice="20.0 0.0 0.0 0.0 20.0 0.0 0.0 0.0 20.0" Properties=species:S:1:pos:R:3 Time=41.500000
H  -0.357353  0.000000  0.000000
H  0.357353  0.000000  0.000000
2
Lattice="20.0 0.0 0.0 0.0 20.0 0.0 0.0 0.0 20.0" Properties=species:S:1:pos:R:3 Time=42.000000
H  -0.395433  0.000000  0.000000
H  0.395433  0.000000  0.000000
2
Lattice="20.0 0.0 0.0 0.0 20.0 0.0 0.0 0.0 20.0" Properties=species:S:1:pos:R:3 Time=42.500000
H  -0.360622  0.000000  0.000000
H  0.360622  0.000000  0.000000
2
Lattice="20.0 0.0 0.0 0.0 20.0 0.0 0.0 0.0 20.0" Properties=species:S:1:pos:R:3 Time=43.000000
H  -0.362052  0.000000  0.000000
H  0.362052  0.000000  0.000000
2
Lattice="20.0 0.0 0.0 0.0 20.0 0.0 0.0 0.0 20.0" Properties=species:S:1:pos:R:3 Time=43.500000
H  -0.395278  0.000000  0.000000
H  0.395278  0.000000  0.000000
2
Lattice="20.0 0.0 0.0 0.0 20.0 0.0 0.0 0.0 20.0" Properties=species:S:1:pos:R:3 Time=44.000000
H  -0.356101  0.000000  0.000000
H  0.356101  0.000000  0.000000
2
Lattice="20.0 0.0 0.0 0.0 20.0 0.0 0.0 0.0 20.0" Properties=species:S:1:pos:R:3 Time=44.500000
H  -0.367186  0.000000  0.000000
H  0.367186  0.000000  0.000000
2
Lattice="20.0 0.0 0.0 0.0 20.0 0.0 0.0 0.0 20.0" Properties=species:S:1:pos:R:3 Time=45.000000
H  -0.394066  0.000000  0.000000
H  0.394066  0.000000  0.000000
2
Lattice="20.0 0.0 0.0 0.0 20.0 0.0 0.0 0.0 20.0" Properties=species:S:1:pos:R:3 Time=45.500000
H  -0.352351  0.000000  0.000000
H  0.352351  0.000000  0.000000
2
Lattice="20.0 0.0 0.0 0.0 20.0 0.0 0.0 0.0 20.0" Properties=species:S:1:pos:R:3 Time=46.000000
H  -0.372483  0.000000  0.000000
H  0.372483  0.000000  0.000000
2
Lattice="20.0 0.0 0.0 0.0 20.0 0.0 0.0 0.0 20.0" Properties=species:S:1:pos:R:3 Time=46.500000
H  -0.391843  0.000000  0.000000
H  0.391843  0.000000  0.000000
2
Lattice="20.0 0.0 0.0 0.0 20.0 0.0 0.0 0.0 20.0" Properties=species:S:1:pos:R:3 Time=47.000000
H  -0.349597  0.000000  0.000000
H  0.349597  0.000000  0.000000
2
Lattice="20.0 0.0 0.0 0.0 20.0 0.0 0.0 0.0 20.0" Properties=species:S:1:pos:R:3 Time=47.500000
H  -0.377680  0.000000  0.000000
H  0.377680  0.000000  0.000000
2
Lattice="20.0 0.0 0.0 0.0 20.0 0.0 0.0 0.0 20.0" Properties=species:S:1:pos:R:3 Time=48.000000
H  -0.388692  0.000000  0.000000
H  0.388692  0.000000  0.000000
2
Lattice="20.0 0.0 0.0 0.0 20.0 0.0 0.0 0.0 20.0" Properties=species:S:1:pos:R:3 Time=48.500000
H  -0.348010  0.000000  0.000000
H  0.348010  0.000000  0.000000
2
Lattice="20.0 0.0 0.0 0.0 20.0 0.0 0.0 0.0 20.0" Properties=species:S:1:pos:R:3 Time=49.000000
H  -0.382534  0.000000  0.000000
H  0.382534  0.000000  0.000000
2
Lattice="20.0 0.0 0.0 0.0 20.0 0.0 0.0 0.0 20.0" Properties=species:S:1:pos:R:3 Time=49.500000
H  -0.384733  0.000000  0.000000
H  0.384733  0.000000  0.000000
2
Lattice="20.0 0.0 0.0 0.0 20.0 0.0 0.0 0.0 20.0" Properties=species:S:1:pos:R:3 Time=50.000000
H  -0.347691  0.000000  0.000000
H  0.347691  0.000000  0.000000
2
Lattice="20.0 0.0 0.0 0.0 20.0 0.0 0.0 0.0 20.0" Properties=species:S:1:pos:R:3 Time=50.500000
H  -0.386834  0.000000  0.000000
H  0.386834  0.000000  0.000000
2
Lattice="20.0 0.0 0.0 0.0 20.0 0.0 0.0 0.0 20.0" Properties=species:S:1:pos:R:3 Time=51.000000
H  -0.380127  0.000000  0.000000
H  0.380127  0.000000  0.000000
2
Lattice="20.0 0.0 0.0 0.0 20.0 0.0 0.0 0.0 20.0" Properties=species:S:1:pos:R:3 Time=51.500000
H  -0.348661  0.000000  0.000000
H  0.348661  0.000000  0.000000
2
Lattice="20.0 0.0 0.0 0.0 20.0 0.0 0.0 0.0 20.0" Properties=species:S:1:pos:R:3 Time=52.000000
H  -0.390401  0.000000  0.000000
H  0.390401  0.000000  0.000000
2
Lattice="20.0 0.0 0.0 0.0 20.0 0.0 0.0 0.0 20.0" Properties=species:S:1:pos:R:3 Time=52.500000
H  -0.375070  0.000000  0.000000
H  0.375070  0.000000  0.000000
2
Lattice="20.0 0.0 0.0 0.0 20.0 0.0 0.0 0.0 20.0" Properties=species:S:1:pos:R:3 Time=53.000000
H  -0.350858  0.000000  0.000000
H  0.350858  0.000000  0.000000
2
Lattice="20.0 0.0 0.0 0.0 20.0 0.0 0.0 0.0 20.0" Properties=species:S:1:pos:R:3 Time=53.500000
H  -0.393094  0.000000  0.000000
H  0.393094  0.000000  0.000000
2
Lattice="20.0 0.0 0.0 0.0 20.0 0.0 0.0 0.0 20.0" Properties=species:S:1:pos:R:3 Time=54.000000
H  -0.369791  0.000000  0.000000
H  0.369791  0.000000  0.000000
2
Lattice="20.0 0.0 0.0 0.0 20.0 0.0 0.0 0.0 20.0" Properties=species:S:1:pos:R:3 Time=54.500000
H  -0.354143  0.000000  0.000000
H  0.354143  0.000000  0.000000
2
Lattice="20.0 0.0 0.0 0.0 20.0 0.0 0.0 0.0 20.0" Properties=species:S:1:pos:R:3 Time=55.000000
H  -0.394811  0.000000  0.000000
H  0.394811  0.000000  0.000000
2
Lattice="20.0 0.0 0.0 0.0 20.0 0.0 0.0 0.0 20.0" Properties=species:S:1:pos:R:3 Time=55.500000
H  -0.364543  0.000000  0.000000
H  0.364543  0.000000  0.000000
2
Lattice="20.0 0.0 0.0 0.0 20.0 0.0 0.0 0.0 20.0" Properties=species:S:1:pos:R:3 Time=56.000000
H  -0.358315  0.000000  0.000000
H  0.358315  0.000000  0.000000
2
Lattice="20.0 0.0 0.0 0.0 20.0 0.0 0.0 0.0 20.0" Properties=species:S:1:pos:R:3 Time=56.500000
H  -0.395490  0.000000  0.000000
H  0.395490  0.000000  0.000000
2
Lattice="20.0 0.0 0.0 0.0 20.0 0.0 0.0 0.0 20.0" Properties=species:S:1:pos:R:3 Time=57.000000
H  -0.359596  0.000000  0.000000
H  0.359596  0.000000  0.000000
2
Lattice="20.0 0.0 0.0 0.0 20.0 0.0 0.0 0.0 20.0" Properties=species:S:1:pos:R:3 Time=57.500000
H  -0.363130  0.000000  0.000000
H  0.363130  0.000000  0.000000
2
Lattice="20.0 0.0 0.0 0.0 20.0 0.0 0.0 0.0 20.0" Properties=species:S:1:pos:R:3 Time=58.000000
H  -0.395105  0.000000  0.000000
H  0.395105  0.000000  0.000000
2
Lattice="20.0 0.0 0.0 0.0 20.0 0.0 0.0 0.0 20.0" Properties=species:S:1:pos:R:3 Time=58.500000
H  -0.355220  0.000000  0.000000
H  0.355220  0.000000  0.000000
2
Lattice="20.0 0.0 0.0 0.0 20.0 0.0 0.0 0.0 20.0" Properties=species:S:1:pos:R:3 Time=59.000000
H  -0.368322  0.000000  0.000000
H  0.368322  0.000000  0.000000
2
Lattice="20.0 0.0 0.0 0.0 20.0 0.0 0.0 0.0 20.0" Properties=species:S:1:pos:R:3 Time=59.500000
H  -0.393671  0.000000  0.000000
H  0.393671  0.000000  0.000000
2
Lattice="20.0 0.0 0.0 0.0 20.0 0.0 0.0 0.0 20.0" Properties=species:S:1:pos:R:3 Time=60.000000
H  -0.351667  0.000000  0.000000
H  0.351667  0.000000  0.000000
2
Lattice="20.0 0.0 0.0 0.0 20.0 0.0 0.0 0.0 20.0" Properties=species:S:1:pos:R:3 Time=60.500000
H  -0.373619  0.000000  0.000000
H  0.373619  0.000000  0.000000
2
Lattice="20.0 0.0 0.0 0.0 20.0 0.0 0.0 0.0 20.0" Properties=species:S:1:pos:R:3 Time=61.000000
H  -0.391239  0.000000  0.000000
H  0.391239  0.000000  0.000000
2
Lattice="20.0 0.0 0.0 0.0 20.0 0.0 0.0 0.0 20.0" Properties=species:S:1:pos:R:3 Time=61.500000
H  -0.349152  0.000000  0.000000
H  0.349152  0.000000  0.000000
2
Lattice="20.0 0.0 0.0 0.0 20.0 0.0 0.0 0.0 20.0" Properties=species:S:1:pos:R:3 Time=62.000000
H  -0.378762  0.000000  0.000000
H  0.378762  0.000000  0.000000
2
Lattice="20.0 0.0 0.0 0.0 20.0 0.0 0.0 0.0 20.0" Properties=species:S:1:pos:R:3 Time=62.500000
H  -0.387902  0.000000  0.000000
H  0.387902  0.000000  0.000000
2
Lattice="20.0 0.0 0.0 0.0 20.0 0.0 0.0 0.0 20.0" Properties=species:S:1:pos:R:3 Time=63.000000
H  -0.347832  0.000000  0.000000
H  0.347832  0.000000  0.000000
2
Lattice="20.0 0.0 0.0 0.0 20.0 0.0 0.0 0.0 20.0" Properties=species:S:1:pos:R:3 Time=63.500000
H  -0.383514  0.000000  0.000000
H  0.383514  0.000000  0.000000
2
Lattice="20.0 0.0 0.0 0.0 20.0 0.0 0.0 0.0 20.0" Properties=species:S:1:pos:R:3 Time=64.000000
H  -0.383790  0.000000  0.000000
H  0.383790  0.000000  0.000000
2
Lattice="20.0 0.0 0.0 0.0 20.0 0.0 0.0 0.0 20.0" Properties=species:S:1:pos:R:3 Time=64.500000
H  -0.347792  0.000000  0.000000
H  0.347792  0.000000  0.000000
2
Lattice="20.0 0.0 0.0 0.0 20.0 0.0 0.0 0.0 20.0" Properties=species:S:1:pos:R:3 Time=65.000000
H  -0.387669  0.000000  0.000000
H  0.387669  0.000000  0.000000
2
Lattice="20.0 0.0 0.0 0.0 20.0 0.0 0.0 0.0 20.0" Properties=species:S:1:pos:R:3 Time=65.500000
H  -0.379069  0.000000  0.000000
H  0.379069  0.000000  0.000000
2
Lattice="20.0 0.0 0.0 0.0 20.0 0.0 0.0 0.0 20.0" Properties=species:S:1:pos:R:3 Time=66.000000
H  -0.349035  0.000000  0.000000
H  0.349035  0.000000  0.000000
2
Lattice="20.0 0.0 0.0 0.0 20.0 0.0 0.0 0.0 20.0" Properties=species:S:1:pos:R:3 Time=66.500000
H  -0.391058  0.000000  0.000000
H  0.391058  0.000000  0.000000
2
Lattice="20.0 0.0 0.0 0.0 20.0 0.0 0.0 0.0 20.0" Properties=species:S:1:pos:R:3 Time=67.000000
H  -0.373944  0.000000  0.000000
H  0.373944  0.000000  0.000000
2
Lattice="20.0 0.0 0.0 0.0 20.0 0.0 0.0 0.0 20.0" Properties=species:S:1:pos:R:3 Time=67.500000
H  -0.351480  0.000000  0.000000
H  0.351480  0.000000  0.000000
2
Lattice="20.0 0.0 0.0 0.0 20.0 0.0 0.0 0.0 20.0" Properties=species:S:1:pos:R:3 Time=68.000000
H  -0.393549  0.000000  0.000000
H  0.393549  0.000000  0.000000
2
Lattice="20.0 0.0 0.0 0.0 20.0 0.0 0.0 0.0 20.0" Properties=species:S:1:pos:R:3 Time=68.500000
H  -0.368649  0.000000  0.000000
H  0.368649  0.000000  0.000000
2
Lattice="20.0 0.0 0.0 0.0 20.0 0.0 0.0 0.0 20.0" Properties=species:S:1:pos:R:3 Time=69.000000
H  -0.354974  0.000000  0.000000
H  0.354974  0.000000  0.000000
2
Lattice="20.0 0.0 0.0 0.0 20.0 0.0 0.0 0.0 20.0" Properties=species:S:1:pos:R:3 Time=69.500000
H  -0.395046  0.000000  0.000000
H  0.395046  0.000000  0.000000
2
Lattice="20.0 0.0 0.0 0.0 20.0 0.0 0.0 0.0 20.0" Properties=species:S:1:pos:R:3 Time=70.000000
H  -0.363443  0.000000  0.000000
H  0.363443  0.000000  0.000000
2
Lattice="20.0 0.0 0.0 0.0 20.0 0.0 0.0 0.0 20.0" Properties=species:S:1:pos:R:3 Time=70.500000
H  -0.359306  0.000000  0.000000
H  0.359306  0.000000  0.000000
2
Lattice="20.0 0.0 0.0 0.0 20.0 0.0 0.0 0.0 20.0" Properties=species:S:1:pos:R:3 Time=71.000000
H  -0.395497  0.000000  0.000000
H  0.395497  0.000000  0.000000
2
Lattice="20.0 0.0 0.0 0.0 20.0 0.0 0.0 0.0 20.0" Properties=species:S:1:pos:R:3 Time=71.500000
H  -0.358596  0.000000  0.000000
H  0.358596  0.000000  0.000000
2
Lattice="20.0 0.0 0.0 0.0 20.0 0.0 0.0 0.0 20.0" Properties=species:S:1:pos:R:3 Time=72.000000
H  -0.364226  0.000000  0.000000
H  0.364226  0.000000  0.000000
2
Lattice="20.0 0.0 0.0 0.0 20.0 0.0 0.0 0.0 20.0" Properties=species:S:1:pos:R:3 Time=72.500000
H  -0.394884  0.000000  0.000000
H  0.394884  0.000000  0.000000
2
Lattice="20.0 0.0 0.0 0.0 20.0 0.0 0.0 0.0 20.0" Properties=species:S:1:pos:R:3 Time=73.000000
H  -0.354377  0.000000  0.000000
H  0.354377  0.000000  0.000000
2
Lattice="20.0 0.0 0.0 0.0 20.0 0.0 0.0 0.0 20.0" Properties=species:S:1:pos:R:3 Time=73.500000
H  -0.369463  0.000000  0.000000
H  0.369463  0.000000  0.000000
2
Lattice="20.0 0.0 0.0 0.0 20.0 0.0 0.0 0.0 20.0" Properties=species:S:1:pos:R:3 Time=74.000000
H  -0.393229  0.000000  0.000000
H  0.393229  0.000000  0.000000
2
Lattice="20.0 0.0 0.0 0.0 20.0 0.0 0.0 0.0 20.0" Properties=species:S:1:pos:R:3 Time=74.500000
H  -0.351031  0.000000  0.000000
H  0.351031  0.000000  0.000000
2
Lattice="20.0 0.0 0.0 0.0 20.0 0.0 0.0 0.0 20.0" Properties=species:S:1:pos:R:3 Time=75.000000
H  -0.374748  0.000000  0.000000
H  0.374748  0.000000  0.000000
2
Lattice="20.0 0.0 0.0 0.0 20.0 0.0 0.0 0.0 20.0" Properties=species:S:1:pos:R:3 Time=75.500000
H  -0.390593  0.000000  0.000000
H  0.390593  0.000000  0.000000
2
Lattice="20.0 0.0 0.0 0.0 20.0 0.0 0.0 0.0 20.0" Properties=species:S:1:pos:R:3 Time=76.000000
H  -0.348763  0.000000  0.000000
H  0.348763  0.000000  0.000000
2
Lattice="20.0 0.0 0.0 0.0 20.0 0.0 0.0 0.0 20.0" Properties=species:S:1:pos:R:3 Time=76.500000
H  -0.379826  0.000000  0.000000
H  0.379826  0.000000  0.000000
2
Lattice="20.0 0.0 0.0 0.0 20.0 0.0 0.0 0.0 20.0" Properties=species:S:1:pos:R:3 Time=77.000000
H  -0.387077  0.000000  0.000000
H  0.387077  0.000000  0.000000
2
Lattice="20.0 0.0 0.0 0.0 20.0 0.0 0.0 0.0 20.0" Properties=species:S:1:pos:R:3 Time=77.500000
H  -0.347714  0.000000  0.000000
H  0.347714  0.000000  0.000000
2
Lattice="20.0 0.0 0.0 0.0 20.0 0.0 0.0 0.0 20.0" Properties=species:S:1:pos:R:3 Time=78.000000
H  -0.384465  0.000000  0.000000
H  0.384465  0.000000  0.000000
2
Lattice="20.0 0.0 0.0 0.0 20.0 0.0 0.0 0.0 20.0" Properties=species:S:1:pos:R:3 Time=78.500000
H  -0.382818  0.000000  0.000000
H  0.382818  0.000000  0.000000
2
Lattice="20.0 0.0 0.0 0.0 20.0 0.0 0.0 0.0 20.0" Properties=species:S:1:pos:R:3 Time=79.000000
H  -0.347953  0.000000  0.000000
H  0.347953  0.000000  0.000000
2
Lattice="20.0 0.0 0.0 0.0 20.0 0.0 0.0 0.0 20.0" Properties=species:S:1:pos:R:3 Time=79.500000
H  -0.388469  0.000000  0.000000
H  0.388469  0.000000  0.000000
2
Lattice="20.0 0.0 0.0 0.0 20.0 0.0 0.0 0.0 20.0" Properties=species:S:1:pos:R:3 Time=80.000000
H  -0.377992  0.000000  0.000000
H  0.377992  0.000000  0.000000
2
Lattice="20.0 0.0 0.0 0.0 20.0 0.0 0.0 0.0 20.0" Properties=species:S:1:pos:R:3 Time=80.500000
H  -0.349464  0.000000  0.000000
H  0.349464  0.000000  0.000000
2
Lattice="20.0 0.0 0.0 0.0 20.0 0.0 0.0 0.0 20.0" Properties=species:S:1:pos:R:3 Time=81.000000
H  -0.391674  0.000000  0.000000
H  0.391674  0.000000  0.000000
2
Lattice="20.0 0.0 0.0 0.0 20.0 0.0 0.0 0.0 20.0" Properties=species:S:1:pos:R:3 Time=81.500000
H  -0.372809  0.000000  0.000000
H  0.372809  0.000000  0.000000
2
Lattice="20.0 0.0 0.0 0.0 20.0 0.0 0.0 0.0 20.0" Properties=species:S:1:pos:R:3 Time=82.000000
H  -0.352150  0.000000  0.000000
H  0.352150  0.000000  0.000000
2
Lattice="20.0 0.0 0.0 0.0 20.0 0.0 0.0 0.0 20.0" Properties=species:S:1:pos:R:3 Time=82.500000
H  -0.393958  0.000000  0.000000
H  0.393958  0.000000  0.000000
2
Lattice="20.0 0.0 0.0 0.0 20.0 0.0 0.0 0.0 20.0" Properties=species:S:1:pos:R:3 Time=83.000000
H  -0.367511  0.000000  0.000000
H  0.367511  0.000000  0.000000
2
Lattice="20.0 0.0 0.0 0.0 20.0 0.0 0.0 0.0 20.0" Properties=species:S:1:pos:R:3 Time=83.500000
H  -0.355844  0.000000  0.000000
H  0.355844  0.000000  0.000000
2
Lattice="20.0 0.0 0.0 0.0 20.0 0.0 0.0 0.0 20.0" Properties=species:S:1:pos:R:3 Time=84.000000
H  -0.395233  0.000000  0.000000
H  0.395233  0.000000  0.000000
2
Lattice="20.0 0.0 0.0 0.0 20.0 0.0 0.0 0.0 20.0" Properties=species:S:1:pos:R:3 Time=84.500000
H  -0.362359  0.000000  0.000000
H  0.362359  0.000000  0.000000
2
Lattice="20.0 0.0 0.0 0.0 20.0 0.0 0.0 0.0 20.0" Properties=species:S:1:pos:R:3 Time=85.000000
H  -0.360325  0.000000  0.000000
H  0.360325  0.000000  0.000000
2
Lattice="20.0 0.0 0.0 0.0 20.0 0.0 0.0 0.0 20.0" Properties=species:S:1:pos:R:3 Time=85.500000
H  -0.395454  0.000000  0.000000
H  0.395454  0.000000  0.000000
2
Lattice="20.0 0.0 0.0 0.0 20.0 0.0 0.0 0.0 20.0" Properties=species:S:1:pos:R:3 Time=86.000000
H  -0.357626  0.000000  0.000000
H  0.357626  0.000000  0.000000
2
Lattice="20.0 0.0 0.0 0.0 20.0 0.0 0.0 0.0 20.0" Properties=species:S:1:pos:R:3 Time=86.500000
H  -0.365336  0.000000  0.000000
H  0.365336  0.000000  0.000000
2
Lattice="20.0 0.0 0.0 0.0 20.0 0.0 0.0 0.0 20.0" Properties=species:S:1:pos:R:3 Time=87.000000
H  -0.394614  0.000000  0.000000
H  0.394614  0.000000  0.000000
2
Lattice="20.0 0.0 0.0 0.0 20.0 0.0 0.0 0.0 20.0" Properties=species:S:1:pos:R:3 Time=87.500000
H  -0.353575  0.000000  0.000000
H  0.353575  0.000000  0.000000
2
Lattice="20.0 0.0 0.0 0.0 20.0 0.0 0.0 0.0 20.0" Properties=species:S:1:pos:R:3 Time=88.000000
H  -0.370606  0.000000  0.000000
H  0.370606  0.000000  0.000000
2
Lattice="20.0 0.0 0.0 0.0 20.0 0.0 0.0 0.0 20.0" Properties=species:S:1:pos:R:3 Time=88.500000
H  -0.392741  0.000000  0.000000
H  0.392741  0.000000  0.000000
2
Lattice="20.0 0.0 0.0 0.0 20.0 0.0 0.0 0.0 20.0" Properties=species:S:1:pos:R:3 Time=89.000000
H  -0.350446  0.000000  0.000000
H  0.350446  0.000000  0.000000
2
Lattice="20.0 0.0 0.0 0.0 20.0 0.0 0.0 0.0 20.0" Properties=species:S:1:pos:R:3 Time=89.500000
H  -0.375867  0.000000  0.000000
H  0.375867  0.000000  0.000000
2
Lattice="20.0 0.0 0.0 0.0 20.0 0.0 0.0 0.0 20.0" Properties=species:S:1:pos:R:3 Time=90.000000
H  -0.389906  0.000000  0.000000
H  0.389906  0.000000  0.000000
2
Lattice="20.0 0.0 0.0 0.0 20.0 0.0 0.0 0.0 20.0" Properties=species:S:1:pos:R:3 Time=90.500000
H  -0.348430  0.000000  0.000000
H  0.348430  0.000000  0.000000
2
Lattice="20.0 0.0 0.0 0.0 20.0 0.0 0.0 0.0 20.0" Properties=species:S:1:pos:R:3 Time=91.000000
H  -0.380869  0.000000  0.000000
H  0.380869  0.000000  0.000000
2
Lattice="20.0 0.0 0.0 0.0 20.0 0.0 0.0 0.0 20.0" Properties=species:S:1:pos:R:3 Time=91.500000
H  -0.386217  0.000000  0.000000
H  0.386217  0.000000  0.000000
2
Lattice="20.0 0.0 0.0 0.0 20.0 0.0 0.0 0.0 20.0" Properties=species:S:1:pos:R:3 Time=92.000000
H  -0.347656  0.000000  0.000000
H  0.347656  0.000000  0.000000
2