2
Step 0, t=0.000 fs
H 0.0 0.0 0.0
H 0.79000 0.0 0.0
2
Step 1, t=0.500 fs
H 0.0 0.0 0.0
H 1.17319 0.0 0.0
2
Step 2, t=1.000 fs
H 0.0 0.0 0.0
H 3.79725 0.0 0.0
2
Step 3, t=1.500 fs
H 0.0 0.0 0.0
H 6.44550 0.0 0.0
2
Step 4, t=2.000 fs
H 0.0 0.0 0.0
H 9.09390 0.0 0.0
2
Step 5, t=2.500 fs
H 0.0 0.0 0.0
H 11.74230 0.0 0.0
2
Step 6, t=3.000 fs
H 0.0 0.0 0.0
H 14.39069 0.0 0.0
2
Step 7, t=3.500 fs
H 0.0 0.0 0.0
H 17.03909 0.0 0.0
2
Step 8, t=4.000 fs
H 0.0 0.0 0.0
H 19.68748 0.0 0.0
2
Step 9, t=4.500 fs
H 0.0 0.0 0.0
H 22.33588 0.0 0.0
2
Step 10, t=5.000 fs
H 0.0 0.0 0.0
H 24.98428 0.0 0.0
2
Step 11, t=5.500 fs
H 0.0 0.0 0.0
H 27.63267 0.0 0.0
2
Step 12, t=6.000 fs
H 0.0 0.0 0.0
H 30.28107 0.0 0.0
2
Step 13, t=6.500 fs
H 0.0 0.0 0.0
H 32.92946 0.0 0.0
2
Step 14, t=7.000 fs
H 0.0 0.0 0.0
H 35.57786 0.0 0.0
2
Step 15, t=7.500 fs
H 0.0 0.0 0.0
H 38.22626 0.0 0.0
2
Step 16, t=8.000 fs
H 0.0 0.0 0.0
H 40.87465 0.0 0.0
2
Step 17, t=8.500 fs
H 0.0 0.0 0.0
H 43.52305 0.0 0.0
2
Step 18, t=9.000 fs
H 0.0 0.0 0.0
H 46.17144 0.0 0.0
2
Step 19, t=9.500 fs
H 0.0 0.0 0.0
H 48.81984 0.0 0.0
2
Step 20, t=10.000 fs
H 0.0 0.0 0.0
H 51.46824 0.0 0.0
2
Step 21, t=10.500 fs
H 0.0 0.0 0.0
H 54.11663 0.0 0.0
2
Step 22, t=11.000 fs
H 0.0 0.0 0.0
H 56.76503 0.0 0.0
2
Step 23, t=11.500 fs
H 0.0 0.0 0.0
H 59.41342 0.0 0.0
2
Step 24, t=12.000 fs
H 0.0 0.0 0.0
H 62.06182 0.0 0.0
2
Step 25, t=12.500 fs
H 0.0 0.0 0.0
H 64.71022 0.0 0.0
2
Step 26, t=13.000 fs
H 0.0 0.0 0.0
H 67.35861 0.0 0.0
2
Step 27, t=13.500 fs
H 0.0 0.0 0.0
H 70.00701 0.0 0.0
2
Step 28, t=14.000 fs
H 0.0 0.0 0.0
H 72.65541 0.0 0.0
2
Step 29, t=14.500 fs
H 0.0 0.0 0.0
H 75.30380 0.0 0.0
2
Step 30, t=15.000 fs
H 0.0 0.0 0.0
H 77.95220 0.0 0.0
2
Step 31, t=15.500 fs
H 0.0 0.0 0.0
H 80.60059 0.0 0.0
2
Step 32, t=16.000 fs
H 0.0 0.0 0.0
H 83.24899 0.0 0.0
2
Step 33, t=16.500 fs
H 0.0 0.0 0.0
H 85.89739 0.0 0.0
2
Step 34, t=17.000 fs
H 0.0 0.0 0.0
H 88.54578 0.0 0.0
2
Step 35, t=17.500 fs
H 0.0 0.0 0.0
H 91.19418 0.0 0.0
2
Step 36, t=18.000 fs
H 0.0 0.0 0.0
H 93.84257 0.0 0.0
2
Step 37, t=18.500 fs
H 0.0 0.0 0.0
H 96.49097 0.0 0.0
2
Step 38, t=19.000 fs
H 0.0 0.0 0.0
H 99.13937 0.0 0.0
2
Step 39, t=19.500 fs
H 0.0 0.0 0.0
H 101.78776 0.0 0.0
2
Step 40, t=20.000 fs
H 0.0 0.0 0.0
H 104.43616 0.0 0.0
2
Step 41, t=20.500 fs
H 0.0 0.0 0.0
H 107.08455 0.0 0.0
2
Step 42, t=21.000 fs
H 0.0 0.0 0.0
H 109.73295 0.0 0.0
2
Step 43, t=21.500 fs
H 0.0 0.0 0.0
H 112.38135 0.0 0.0
2
Step 44, t=22.000 fs
H 0.0 0.0 0.0
H 115.02974 0.0 0.0
2
Step 45, t=22.500 fs
H 0.0 0.0 0.0
H 117.67814 0.0 0.0
2
Step 46, t=23.000 fs
H 0.0 0.0 0.0
H 120.32654 0.0 0.0
2
Step 47, t=23.500 fs
H 0.0 0.0 0.0
H 122.97493 0.0 0.0
2
Step 48, t=24.000 fs
H 0.0 0.0 0.0
H 125.62333 0.0 0.0
2
Step 49, t=24.500 fs
H 0.0 0.0 0.0
H 128.27172 0.0 0.0
2
Step 50, t=25.000 fs
H 0.0 0.0 0.0
H 130.92012 0.0 0.0
2
Step 51, t=25.500 fs
H 0.0 0.0 0.0
H 133.56852 0.0 0.0
2
Step 52, t=26.000 fs
H 0.0 0.0 0.0
H 136.21691 0.0 0.0
2
Step 53, t=26.500 fs
H 0.0 0.0 0.0
H 138.86531 0.0 0.0
2
Step 54, t=27.000 fs
H 0.0 0.0 0.0
H 141.51370 0.0 0.0
2
Step 55, t=27.500 fs
H 0.0 0.0 0.0
H 144.16210 0.0 0.0
2
Step 56, t=28.000 fs
H 0.0 0.0 0.0
H 146.81050 0.0 0.0
2
Step 57, t=28.500 fs
H 0.0 0.0 0.0
H 149.45889 0.0 0.0
2
Step 58, t=29.000 fs
H 0.0 0.0 0.0
H 152.10729 0.0 0.0
2
Step 59, t=29.500 fs
H 0.0 0.0 0.0
H 154.75568 0.0 0.0
2
Step 60, t=30.000 fs
H 0.0 0.0 0.0
H 157.40408 0.0 0.0
2
Step 61, t=30.500 fs
H 0.0 0.0 0.0
H 160.05248 0.0 0.0
2
Step 62, t=31.000 fs
H 0.0 0.0 0.0
H 162.70087 0.0 0.0
2
Step 63, t=31.500 fs
H 0.0 0.0 0.0
H 165.34927 0.0 0.0
2
Step 64, t=32.000 fs
H 0.0 0.0 0.0
H 167.99766 0.0 0.0
2
Step 65, t=32.500 fs
H 0.0 0.0 0.0
H 170.64606 0.0 0.0
2
Step 66, t=33.000 fs
H 0.0 0.0 0.0
H 173.29446 0.0 0.0
2
Step 67, t=33.500 fs
H 0.0 0.0 0.0
H 175.94285 0.0 0.0
2
Step 68, t=34.000 fs
H 0.0 0.0 0.0
H 178.59125 0.0 0.0
2
Step 69, t=34.500 fs
H 0.0 0.0 0.0
H 181.23965 0.0 0.0
2
Step 70, t=35.000 fs
H 0.0 0.0 0.0
H 183.88804 0.0 0.0
2
Step 71, t=35.500 fs
H 0.0 0.0 0.0
H 186.53644 0.0 0.0
2
Step 72, t=36.000 fs
H 0.0 0.0 0.0
H 189.18483 0.0 0.0
2
Step 73, t=36.500 fs
H 0.0 0.0 0.0
H 191.83323 0.0 0.0
2
Step 74, t=37.000 fs
H 0.0 0.0 0.0
H 194.48163 0.0 0.0
2
Step 75, t=37.500 fs
H 0.0 0.0 0.0
H 197.13002 0.0 0.0
2
Step 76, t=38.000 fs
H 0.0 0.0 0.0
H 199.77842 0.0 0.0
2
Step 77, t=38.500 fs
H 0.0 0.0 0.0
H 202.42681 0.0 0.0
2
Step 78, t=39.000 fs
H 0.0 0.0 0.0
H 205.07521 0.0 0.0
2
Step 79, t=39.500 fs
H 0.0 0.0 0.0
H 207.72361 0.0 0.0
2
Step 80, t=40.000 fs
H 0.0 0.0 0.0
H 210.37200 0.0 0.0
2
Step 81, t=40.500 fs
H 0.0 0.0 0.0
H 213.02040 0.0 0.0
2
Step 82, t=41.000 fs
H 0.0 0.0 0.0
H 215.66879 0.0 0.0
2
Step 83, t=41.500 fs
H 0.0 0.0 0.0
H 218.31719 0.0 0.0
2
Step 84, t=42.000 fs
H 0.0 0.0 0.0
H 220.96559 0.0 0.0
2
Step 85, t=42.500 fs
H 0.0 0.0 0.0
H 223.61398 0.0 0.0
2
Step 86, t=43.000 fs
H 0.0 0.0 0.0
H 226.26238 0.0 0.0
2
Step 87, t=43.500 fs
H 0.0 0.0 0.0
H 228.91078 0.0 0.0
2
Step 88, t=44.000 fs
H 0.0 0.0 0.0
H 231.55917 0.0 0.0
2
Step 89, t=44.500 fs
H 0.0 0.0 0.0
H 234.20757 0.0 0.0
2
Step 90, t=45.000 fs
H 0.0 0.0 0.0
H 236.85596 0.0 0.0
2
Step 91, t=45.500 fs
H 0.0 0.0 0.0
H 239.50436 0.0 0.0
2
Step 92, t=46.000 fs
H 0.0 0.0 0.0
H 242.15276 0.0 0.0
2
Step 93, t=46.500 fs
H 0.0 0.0 0.0
H 244.80115 0.0 0.0
2
Step 94, t=47.000 fs
H 0.0 0.0 0.0
H 247.44955 0.0 0.0
2
Step 95, t=47.500 fs
H 0.0 0.0 0.0
H 250.09794 0.0 0.0
2
Step 96, t=48.000 fs
H 0.0 0.0 0.0
H 252.74634 0.0 0.0
2
Step 97, t=48.500 fs
H 0.0 0.0 0.0
H 255.39474 0.0 0.0
2
Step 98, t=49.000 fs
H 0.0 0.0 0.0
H 258.04313 0.0 0.0
2
Step 99, t=49.500 fs
H 0.0 0.0 0.0
H 260.69153 0.0 0.0
2
Step 100, t=50.000 fs
H 0.0 0.0 0.0
H 263.33992 0.0 0.0
2
Step 101, t=50.500 fs
H 0.0 0.0 0.0
H 265.98832 0.0 0.0
2
Step 102, t=51.000 fs
H 0.0 0.0 0.0
H 268.63672 0.0 0.0
2
Step 103, t=51.500 fs
H 0.0 0.0 0.0
H 271.28511 0.0 0.0
2
Step 104, t=52.000 fs
H 0.0 0.0 0.0
H 273.93351 0.0 0.0
2
Step 105, t=52.500 fs
H 0.0 0.0 0.0
H 276.58190 0.0 0.0
2
Step 106, t=53.000 fs
H 0.0 0.0 0.0
H 279.23030 0.0 0.0
2
Step 107, t=53.500 fs
H 0.0 0.0 0.0
H 281.87870 0.0 0.0
2
Step 108, t=54.000 fs
H 0.0 0.0 0.0
H 284.52709 0.0 0.0
2
Step 109, t=54.500 fs
H 0.0 0.0 0.0
H 287.17549 0.0 0.0
2
Step 110, t=55.000 fs
H 0.0 0.0 0.0
H 289.82389 0.0 0.0
2
Step 111, t=55.500 fs
H 0.0 0.0 0.0
H 292.47228 0.0 0.0
2
Step 112, t=56.000 fs
H 0.0 0.0 0.0
H 295.12068 0.0 0.0
2
Step 113, t=56.500 fs
H 0.0 0.0 0.0
H 297.76907 0.0 0.0
2
Step 114, t=57.000 fs
H 0.0 0.0 0.0
H 300.41747 0.0 0.0
2
Step 115, t=57.500 fs
H 0.0 0.0 0.0
H 303.06587 0.0 0.0
2
Step 116, t=58.000 fs
H 0.0 0.0 0.0
H 305.71426 0.0 0.0
2
Step 117, t=58.500 fs
H 0.0 0.0 0.0
H 308.36266 0.0 0.0
2
Step 118, t=59.000 fs
H 0.0 0.0 0.0
H 311.01105 0.0 0.0
2
Step 119, t=59.500 fs
H 0.0 0.0 0.0
H 313.65945 0.0 0.0
2
Step 120, t=60.000 fs
H 0.0 0.0 0.0
H 316.30785 0.0 0.0
2
Step 121, t=60.500 fs
H 0.0 0.0 0.0
H 318.95624 0.0 0.0
2
Step 122, t=61.000 fs
H 0.0 0.0 0.0
H 321.60464 0.0 0.0
2
Step 123, t=61.500 fs
H 0.0 0.0 0.0
H 324.25303 0.0 0.0
2
Step 124, t=62.000 fs
H 0.0 0.0 0.0
H 326.90143 0.0 0.0
2
Step 125, t=62.500 fs
H 0.0 0.0 0.0
H 329.54983 0.0 0.0
2
Step 126, t=63.000 fs
H 0.0 0.0 0.0
H 332.19822 0.0 0.0
2
Step 127, t=63.500 fs
H 0.0 0.0 0.0
H 334.84662 0.0 0.0
2
Step 128, t=64.000 fs
H 0.0 0.0 0.0
H 337.49501 0.0 0.0
2
Step 129, t=64.500 fs
H 0.0 0.0 0.0
H 340.14341 0.0 0.0
2
Step 130, t=65.000 fs
H 0.0 0.0 0.0
H 342.79181 0.0 0.0
2
Step 131, t=65.500 fs
H 0.0 0.0 0.0
H 345.44020 0.0 0.0
2
Step 132, t=66.000 fs
H 0.0 0.0 0.0
H 348.08860 0.0 0.0
2
Step 133, t=66.500 fs
H 0.0 0.0 0.0
H 350.73700 0.0 0.0
2
Step 134, t=67.000 fs
H 0.0 0.0 0.0
H 353.38539 0.0 0.0
2
Step 135, t=67.500 fs
H 0.0 0.0 0.0
H 356.03379 0.0 0.0
2
Step 136, t=68.000 fs
H 0.0 0.0 0.0
H 358.68218 0.0 0.0
2
Step 137, t=68.500 fs
H 0.0 0.0 0.0
H 361.33058 0.0 0.0
2
Step 138, t=69.000 fs
H 0.0 0.0 0.0
H 363.97898 0.0 0.0
2
Step 139, t=69.500 fs
H 0.0 0.0 0.0
H 366.62737 0.0 0.0
2
Step 140, t=70.000 fs
H 0.0 0.0 0.0
H 369.27577 0.0 0.0
2
Step 141, t=70.500 fs
H 0.0 0.0 0.0
H 371.92416 0.0 0.0
2
Step 142, t=71.000 fs
H 0.0 0.0 0.0
H 374.57256 0.0 0.0
2
Step 143, t=71.500 fs
H 0.0 0.0 0.0
H 377.22096 0.0 0.0
2
Step 144, t=72.000 fs
H 0.0 0.0 0.0
H 379.86935 0.0 0.0
2
Step 145, t=72.500 fs
H 0.0 0.0 0.0
H 382.51775 0.0 0.0
2
Step 146, t=73.000 fs
H 0.0 0.0 0.0
H 385.16614 0.0 0.0
2
Step 147, t=73.500 fs
H 0.0 0.0 0.0
H 387.81454 0.0 0.0
2
Step 148, t=74.000 fs
H 0.0 0.0 0.0
H 390.46294 0.0 0.0
2
Step 149, t=74.500 fs
H 0.0 0.0 0.0
H 393.11133 0.0 0.0
2
Step 150, t=75.000 fs
H 0.0 0.0 0.0
H 395.75973 0.0 0.0
2
Step 151, t=75.500 fs
H 0.0 0.0 0.0
H 398.40813 0.0 0.0
2
Step 152, t=76.000 fs
H 0.0 0.0 0.0
H 401.05652 0.0 0.0
2
Step 153, t=76.500 fs
H 0.0 0.0 0.0
H 403.70492 0.0 0.0
2
Step 154, t=77.000 fs
H 0.0 0.0 0.0
H 406.35331 0.0 0.0
2
Step 155, t=77.500 fs
H 0.0 0.0 0.0
H 409.00171 0.0 0.0
2
Step 156, t=78.000 fs
H 0.0 0.0 0.0
H 411.65011 0.0 0.0
2
Step 157, t=78.500 fs
H 0.0 0.0 0.0
H 414.29850 0.0 0.0
2
Step 158, t=79.000 fs
H 0.0 0.0 0.0
H 416.94690 0.0 0.0
2
Step 159, t=79.500 fs
H 0.0 0.0 0.0
H 419.59529 0.0 0.0
2
Step 160, t=80.000 fs
H 0.0 0.0 0.0
H 422.24369 0.0 0.0
2
Step 161, t=80.500 fs
H 0.0 0.0 0.0
H 424.89209 0.0 0.0
2
Step 162, t=81.000 fs
H 0.0 0.0 0.0
H 427.54048 0.0 0.0
2
Step 163, t=81.500 fs
H 0.0 0.0 0.0
H 430.18888 0.0 0.0
2
Step 164, t=82.000 fs
H 0.0 0.0 0.0
H 432.83727 0.0 0.0
2
Step 165, t=82.500 fs
H 0.0 0.0 0.0
H 435.48567 0.0 0.0
2
Step 166, t=83.000 fs
H 0.0 0.0 0.0
H 438.13407 0.0 0.0
2
Step 167, t=83.500 fs
H 0.0 0.0 0.0
H 440.78246 0.0 0.0
2
Step 168, t=84.000 fs
H 0.0 0.0 0.0
H 443.43086 0.0 0.0
2
Step 169, t=84.500 fs
H 0.0 0.0 0.0
H 446.07925 0.0 0.0
2
Step 170, t=85.000 fs
H 0.0 0.0 0.0
H 448.72765 0.0 0.0
2
Step 171, t=85.500 fs
H 0.0 0.0 0.0
H 451.37605 0.0 0.0
2
Step 172, t=86.000 fs
H 0.0 0.0 0.0
H 454.02444 0.0 0.0
2
Step 173, t=86.500 fs
H 0.0 0.0 0.0
H 456.67284 0.0 0.0
2
Step 174, t=87.000 fs
H 0.0 0.0 0.0
H 459.32124 0.0 0.0
2
Step 175, t=87.500 fs
H 0.0 0.0 0.0
H 461.96963 0.0 0.0
2
Step 176, t=88.000 fs
H 0.0 0.0 0.0
H 464.61803 0.0 0.0
2
Step 177, t=88.500 fs
H 0.0 0.0 0.0
H 467.26642 0.0 0.0
2
Step 178, t=89.000 fs
H 0.0 0.0 0.0
H 469.91482 0.0 0.0
2
Step 179, t=89.500 fs
H 0.0 0.0 0.0
H 472.56322 0.0 0.0
2
Step 180, t=90.000 fs
H 0.0 0.0 0.0
H 475.21161 0.0 0.0
2
Step 181, t=90.500 fs
H 0.0 0.0 0.0
H 477.86001 0.0 0.0
2
Step 182, t=91.000 fs
H 0.0 0.0 0.0
H 480.50840 0.0 0.0
2
Step 183, t=91.500 fs
H 0.0 0.0 0.0
H 483.15680 0.0 0.0
2
Step 184, t=92.000 fs
H 0.0 0.0 0.0
H 485.80520 0.0 0.0
2
Step 185, t=92.500 fs
H 0.0 0.0 0.0
H 488.45359 0.0 0.0
2
Step 186, t=93.000 fs
H 0.0 0.0 0.0
H 491.10199 0.0 0.0
2
Step 187, t=93.500 fs
H 0.0 0.0 0.0
H 493.75038 0.0 0.0
2
Step 188, t=94.000 fs
H 0.0 0.0 0.0
H 496.39878 0.0 0.0
2
Step 189, t=94.500 fs
H 0.0 0.0 0.0
H 499.04718 0.0 0.0
2
Step 190, t=95.000 fs
H 0.0 0.0 0.0
H 501.69557 0.0 0.0
2
Step 191, t=95.500 fs
H 0.0 0.0 0.0
H 504.34397 0.0 0.0
2
Step 192, t=96.000 fs
H 0.0 0.0 0.0
H 506.99237 0.0 0.0
2
Step 193, t=96.500 fs
H 0.0 0.0 0.0
H 509.64076 0.0 0.0
2
Step 194, t=97.000 fs
H 0.0 0.0 0.0
H 512.28916 0.0 0.0
2
Step 195, t=97.500 fs
H 0.0 0.0 0.0
H 514.93755 0.0 0.0
2
Step 196, t=98.000 fs
H 0.0 0.0 0.0
H 517.58595 0.0 0.0
2
Step 197, t=98.500 fs
H 0.0 0.0 0.0
H 520.23435 0.0 0.0
2
Step 198, t=99.000 fs
H 0.0 0.0 0.0
H 522.88274 0.0 0.0
2
Step 199, t=99.500 fs
H 0.0 0.0 0.0
H 525.53114 0.0 0.0
2
Step 200, t=100.000 fs
H 0.0 0.0 0.0
H 528.17953 0.0 0.0
2
Step 201, t=100.500 fs
H 0.0 0.0 0.0
H 530.82793 0.0 0.0
2
Step 202, t=101.000 fs
H 0.0 0.0 0.0
H 533.47633 0.0 0.0
2
Step 203, t=101.500 fs
H 0.0 0.0 0.0
H 536.12472 0.0 0.0
2
Step 204, t=102.000 fs
H 0.0 0.0 0.0
H 538.77312 0.0 0.0
2
Step 205, t=102.500 fs
H 0.0 0.0 0.0
H 541.42151 0.0 0.0
2
Step 206, t=103.000 fs
H 0.0 0.0 0.0
H 544.06991 0.0 0.0
2
Step 207, t=103.500 fs
H 0.0 0.0 0.0
H 546.71831 0.0 0.0
2
Step 208, t=104.000 fs
H 0.0 0.0 0.0
H 549.36670 0.0 0.0
2
Step 209, t=104.500 fs
H 0.0 0.0 0.0
H 552.01510 0.0 0.0
2
Step 210, t=105.000 fs
H 0.0 0.0 0.0
H 554.66349 0.0 0.0
2
Step 211, t=105.500 fs
H 0.0 0.0 0.0
H 557.31189 0.0 0.0
2
Step 212, t=106.000 fs
H 0.0 0.0 0.0
H 559.96029 0.0 0.0
2
Step 213, t=106.500 fs
H 0.0 0.0 0.0
H 562.60868 0.0 0.0
2
Step 214, t=107.000 fs
H 0.0 0.0 0.0
H 565.25708 0.0 0.0
2
Step 215, t=107.500 fs
H 0.0 0.0 0.0
H 567.90548 0.0 0.0
2
Step 216, t=108.000 fs
H 0.0 0.0 0.0
H 570.55387 0.0 0.0
2
Step 217, t=108.500 fs
H 0.0 0.0 0.0
H 573.20227 0.0 0.0
2
Step 218, t=109.000 fs
H 0.0 0.0 0.0
H 575.85066 0.0 0.0
2
Step 219, t=109.500 fs
H 0.0 0.0 0.0
H 578.49906 0.0 0.0
2
Step 220, t=110.000 fs
H 0.0 0.0 0.0
H 581.14746 0.0 0.0
2
Step 221, t=110.500 fs
H 0.0 0.0 0.0
H 583.79585 0.0 0.0
2
Step 222, t=111.000 fs
H 0.0 0.0 0.0
H 586.44425 0.0 0.0
2
Step 223, t=111.500 fs
H 0.0 0.0 0.0
H 589.09264 0.0 0.0
2
Step 224, t=112.000 fs
H 0.0 0.0 0.0
H 591.74104 0.0 0.0
2
Step 225, t=112.500 fs
H 0.0 0.0 0.0
H 594.38944 0.0 0.0
2
Step 226, t=113.000 fs
H 0.0 0.0 0.0
H 597.03783 0.0 0.0
2
Step 227, t=113.500 fs
H 0.0 0.0 0.0
H 599.68623 0.0 0.0
2
Step 228, t=114.000 fs
H 0.0 0.0 0.0
H 602.33462 0.0 0.0
2
Step 229, t=114.500 fs
H 0.0 0.0 0.0
H 604.98302 0.0 0.0
2
Step 230, t=115.000 fs
H 0.0 0.0 0.0
H 607.63142 0.0 0.0
2
Step 231, t=115.500 fs
H 0.0 0.0 0.0
H 610.27981 0.0 0.0
2
Step 232, t=116.000 fs
H 0.0 0.0 0.0
H 612.92821 0.0 0.0
2
Step 233, t=116.500 fs
H 0.0 0.0 0.0
H 615.57660 0.0 0.0
2
Step 234, t=117.000 fs
H 0.0 0.0 0.0
H 618.22500 0.0 0.0
2
Step 235, t=117.500 fs
H 0.0 0.0 0.0
H 620.87340 0.0 0.0
2
Step 236, t=118.000 fs
H 0.0 0.0 0.0
H 623.52179 0.0 0.0
2
Step 237, t=118.500 fs
H 0.0 0.0 0.0
H 626.17019 0.0 0.0
2
Step 238, t=119.000 fs
H 0.0 0.0 0.0
H 628.81859 0.0 0.0
2
Step 239, t=119.500 fs
H 0.0 0.0 0.0
H 631.46698 0.0 0.0
2
Step 240, t=120.000 fs
H 0.0 0.0 0.0
H 634.11538 0.0 0.0
2
Step 241, t=120.500 fs
H 0.0 0.0 0.0
H 636.76377 0.0 0.0
2
Step 242, t=121.000 fs
H 0.0 0.0 0.0
H 639.41217 0.0 0.0
2
Step 243, t=121.500 fs
H 0.0 0.0 0.0
H 642.06057 0.0 0.0
2
Step 244, t=122.000 fs
H 0.0 0.0 0.0
H 644.70896 0.0 0.0
2
Step 245, t=122.500 fs
H 0.0 0.0 0.0
H 647.35736 0.0 0.0
2
Step 246, t=123.000 fs
H 0.0 0.0 0.0
H 650.00575 0.0 0.0
2
Step 247, t=123.500 fs
H 0.0 0.0 0.0
H 652.65415 0.0 0.0
2
Step 248, t=124.000 fs
H 0.0 0.0 0.0
H 655.30255 0.0 0.0
2
Step 249, t=124.500 fs
H 0.0 0.0 0.0
H 657.95094 0.0 0.0
2
Step 250, t=125.000 fs
H 0.0 0.0 0.0
H 660.59934 0.0 0.0
2
Step 251, t=125.500 fs
H 0.0 0.0 0.0
H 663.24773 0.0 0.0
2
Step 252, t=126.000 fs
H 0.0 0.0 0.0
H 665.89613 0.0 0.0
2
Step 253, t=126.500 fs
H 0.0 0.0 0.0
H 668.54453 0.0 0.0
2
Step 254, t=127.000 fs
H 0.0 0.0 0.0
H 671.19292 0.0 0.0
2
Step 255, t=127.500 fs
H 0.0 0.0 0.0
H 673.84132 0.0 0.0
2
Step 256, t=128.000 fs
H 0.0 0.0 0.0
H 676.48972 0.0 0.0
2
Step 257, t=128.500 fs
H 0.0 0.0 0.0
H 679.13811 0.0 0.0
2
Step 258, t=129.000 fs
H 0.0 0.0 0.0
H 681.78651 0.0 0.0
2
Step 259, t=129.500 fs
H 0.0 0.0 0.0
H 684.43490 0.0 0.0
2
Step 260, t=130.000 fs
H 0.0 0.0 0.0
H 687.08330 0.0 0.0
2
Step 261, t=130.500 fs
H 0.0 0.0 0.0
H 689.73170 0.0 0.0
2
Step 262, t=131.000 fs
H 0.0 0.0 0.0
H 692.38009 0.0 0.0
2
Step 263, t=131.500 fs
H 0.0 0.0 0.0
H 695.02849 0.0 0.0
2
Step 264, t=132.000 fs
H 0.0 0.0 0.0
H 697.67688 0.0 0.0
2
Step 265, t=132.500 fs
H 0.0 0.0 0.0
H 700.32528 0.0 0.0
2
Step 266, t=133.000 fs
H 0.0 0.0 0.0
H 702.97368 0.0 0.0
2
Step 267, t=133.500 fs
H 0.0 0.0 0.0
H 705.62207 0.0 0.0
2
Step 268, t=134.000 fs
H 0.0 0.0 0.0
H 708.27047 0.0 0.0
2
Step 269, t=134.500 fs
H 0.0 0.0 0.0
H 710.91886 0.0 0.0
2
Step 270, t=135.000 fs
H 0.0 0.0 0.0
H 713.56726 0.0 0.0
2
Step 271, t=135.500 fs
H 0.0 0.0 0.0
H 716.21566 0.0 0.0
2
Step 272, t=136.000 fs
H 0.0 0.0 0.0
H 718.86405 0.0 0.0
2
Step 273, t=136.500 fs
H 0.0 0.0 0.0
H 721.51245 0.0 0.0
2
Step 274, t=137.000 fs
H 0.0 0.0 0.0
H 724.16084 0.0 0.0
2
Step 275, t=137.500 fs
H 0.0 0.0 0.0
H 726.80924 0.0 0.0
2
Step 276, t=138.000 fs
H 0.0 0.0 0.0
H 729.45764 0.0 0.0
2
Step 277, t=138.500 fs
H 0.0 0.0 0.0
H 732.10603 0.0 0.0
2
Step 278, t=139.000 fs
H 0.0 0.0 0.0
H 734.75443 0.0 0.0
2
Step 279, t=139.500 fs
H 0.0 0.0 0.0
H 737.40283 0.0 0.0
2
Step 280, t=140.000 fs
H 0.0 0.0 0.0
H 740.05122 0.0 0.0
2
Step 281, t=140.500 fs
H 0.0 0.0 0.0
H 742.69962 0.0 0.0
2
Step 282, t=141.000 fs
H 0.0 0.0 0.0
H 745.34801 0.0 0.0
2
Step 283, t=141.500 fs
H 0.0 0.0 0.0
H 747.99641 0.0 0.0
2
Step 284, t=142.000 fs
H 0.0 0.0 0.0
H 750.64481 0.0 0.0
2
Step 285, t=142.500 fs
H 0.0 0.0 0.0
H 753.29320 0.0 0.0
2
Step 286, t=143.000 fs
H 0.0 0.0 0.0
H 755.94160 0.0 0.0
2
Step 287, t=143.500 fs
H 0.0 0.0 0.0
H 758.58999 0.0 0.0
2
Step 288, t=144.000 fs
H 0.0 0.0 0.0
H 761.23839 0.0 0.0
2
Step 289, t=144.500 fs
H 0.0 0.0 0.0
H 763.88679 0.0 0.0
2
Step 290, t=145.000 fs
H 0.0 0.0 0.0
H 766.53518 0.0 0.0
2
Step 291, t=145.500 fs
H 0.0 0.0 0.0
H 769.18358 0.0 0.0
2
Step 292, t=146.000 fs
H 0.0 0.0 0.0
H 771.83197 0.0 0.0
2
Step 293, t=146.500 fs
H 0.0 0.0 0.0
H 774.48037 0.0 0.0
2
Step 294, t=147.000 fs
H 0.0 0.0 0.0
H 777.12877 0.0 0.0
2
Step 295, t=147.500 fs
H 0.0 0.0 0.0
H 779.77716 0.0 0.0
2
Step 296, t=148.000 fs
H 0.0 0.0 0.0
H 782.42556 0.0 0.0
2
Step 297, t=148.500 fs
H 0.0 0.0 0.0
H 785.07396 0.0 0.0
2
Step 298, t=149.000 fs
H 0.0 0.0 0.0
H 787.72235 0.0 0.0
2
Step 299, t=149.500 fs
H 0.0 0.0 0.0
H 790.37075 0.0 0.0
2
Step 300, t=150.000 fs
H 0.0 0.0 0.0
H 793.01914 0.0 0.0
2
Step 301, t=150.500 fs
H 0.0 0.0 0.0
H 795.66754 0.0 0.0
2
Step 302, t=151.000 fs
H 0.0 0.0 0.0
H 798.31594 0.0 0.0
2
Step 303, t=151.500 fs
H 0.0 0.0 0.0
H 800.96433 0.0 0.0
2
Step 304, t=152.000 fs
H 0.0 0.0 0.0
H 803.61273 0.0 0.0
2
Step 305, t=152.500 fs
H 0.0 0.0 0.0
H 806.26112 0.0 0.0
2
Step 306, t=153.000 fs
H 0.0 0.0 0.0
H 808.90952 0.0 0.0
2
Step 307, t=153.500 fs
H 0.0 0.0 0.0
H 811.55792 0.0 0.0
2
Step 308, t=154.000 fs
H 0.0 0.0 0.0
H 814.20631 0.0 0.0
2
Step 309, t=154.500 fs
H 0.0 0.0 0.0
H 816.85471 0.0 0.0
2
Step 310, t=155.000 fs
H 0.0 0.0 0.0
H 819.50310 0.0 0.0
2
Step 311, t=155.500 fs
H 0.0 0.0 0.0
H 822.15150 0.0 0.0
2
Step 312, t=156.000 fs
H 0.0 0.0 0.0
H 824.79990 0.0 0.0
2
Step 313, t=156.500 fs
H 0.0 0.0 0.0
H 827.44829 0.0 0.0
2
Step 314, t=157.000 fs
H 0.0 0.0 0.0
H 830.09669 0.0 0.0
2
Step 315, t=157.500 fs
H 0.0 0.0 0.0
H 832.74508 0.0 0.0
2
Step 316, t=158.000 fs
H 0.0 0.0 0.0
H 835.39348 0.0 0.0
2
Step 317, t=158.500 fs
H 0.0 0.0 0.0
H 838.04188 0.0 0.0
2
Step 318, t=159.000 fs
H 0.0 0.0 0.0
H 840.69027 0.0 0.0
2
Step 319, t=159.500 fs
H 0.0 0.0 0.0
H 843.33867 0.0 0.0
2
Step 320, t=160.000 fs
H 0.0 0.0 0.0
H 845.98707 0.0 0.0
2
Step 321, t=160.500 fs
H 0.0 0.0 0.0
H 848.63546 0.0 0.0
2
Step 322, t=161.000 fs
H 0.0 0.0 0.0
H 851.28386 0.0 0.0
2
Step 323, t=161.500 fs
H 0.0 0.0 0.0
H 853.93225 0.0 0.0
2
Step 324, t=162.000 fs
H 0.0 0.0 0.0
H 856.58065 0.0 0.0
2
Step 325, t=162.500 fs
H 0.0 0.0 0.0
H 859.22905 0.0 0.0
2
Step 326, t=163.000 fs
H 0.0 0.0 0.0
H 861.87744 0.0 0.0
2
Step 327, t=163.500 fs
H 0.0 0.0 0.0
H 864.52584 0.0 0.0
2
Step 328, t=164.000 fs
H 0.0 0.0 0.0
H 867.17423 0.0 0.0
2
Step 329, t=164.500 fs
H 0.0 0.0 0.0
H 869.82263 0.0 0.0
2
Step 330, t=165.000 fs
H 0.0 0.0 0.0
H 872.47103 0.0 0.0
2
Step 331, t=165.500 fs
H 0.0 0.0 0.0
H 875.11942 0.0 0.0
2
Step 332, t=166.000 fs
H 0.0 0.0 0.0
H 877.76782 0.0 0.0
2
Step 333, t=166.500 fs
H 0.0 0.0 0.0
H 880.41621 0.0 0.0
2
Step 334, t=167.000 fs
H 0.0 0.0 0.0
H 883.06461 0.0 0.0
2
Step 335, t=167.500 fs
H 0.0 0.0 0.0
H 885.71301 0.0 0.0
2
Step 336, t=168.000 fs
H 0.0 0.0 0.0
H 888.36140 0.0 0.0
2
Step 337, t=168.500 fs
H 0.0 0.0 0.0
H 891.00980 0.0 0.0
2
Step 338, t=169.000 fs
H 0.0 0.0 0.0
H 893.65819 0.0 0.0
2
Step 339, t=169.500 fs
H 0.0 0.0 0.0
H 896.30659 0.0 0.0
2
Step 340, t=170.000 fs
H 0.0 0.0 0.0
H 898.95499 0.0 0.0
2
Step 341, t=170.500 fs
H 0.0 0.0 0.0
H 901.60338 0.0 0.0
2
Step 342, t=171.000 fs
H 0.0 0.0 0.0
H 904.25178 0.0 0.0
2
Step 343, t=171.500 fs
H 0.0 0.0 0.0
H 906.90018 0.0 0.0
2
Step 344, t=172.000 fs
H 0.0 0.0 0.0
H 909.54857 0.0 0.0
2
Step 345, t=172.500 fs
H 0.0 0.0 0.0
H 912.19697 0.0 0.0
2
Step 346, t=173.000 fs
H 0.0 0.0 0.0
H 914.84536 0.0 0.0
2
Step 347, t=173.500 fs
H 0.0 0.0 0.0
H 917.49376 0.0 0.0
2
Step 348, t=174.000 fs
H 0.0 0.0 0.0
H 920.14216 0.0 0.0
2
Step 349, t=174.500 fs
H 0.0 0.0 0.0
H 922.79055 0.0 0.0
2
Step 350, t=175.000 fs
H 0.0 0.0 0.0
H 925.43895 0.0 0.0
2
Step 351, t=175.500 fs
H 0.0 0.0 0.0
H 928.08734 0.0 0.0
2
Step 352, t=176.000 fs
H 0.0 0.0 0.0
H 930.73574 0.0 0.0
2
Step 353, t=176.500 fs
H 0.0 0.0 0.0
H 933.38414 0.0 0.0
2
Step 354, t=177.000 fs
H 0.0 0.0 0.0
H 936.03253 0.0 0.0
2
Step 355, t=177.500 fs
H 0.0 0.0 0.0
H 938.68093 0.0 0.0
2
Step 356, t=178.000 fs
H 0.0 0.0 0.0
H 941.32932 0.0 0.0
2
Step 357, t=178.500 fs
H 0.0 0.0 0.0
H 943.97772 0.0 0.0
2
Step 358, t=179.000 fs
H 0.0 0.0 0.0
H 946.62612 0.0 0.0
2
Step 359, t=179.500 fs
H 0.0 0.0 0.0
H 949.27451 0.0 0.0
2
Step 360, t=180.000 fs
H 0.0 0.0 0.0
H 951.92291 0.0 0.0
2
Step 361, t=180.500 fs
H 0.0 0.0 0.0
H 954.57131 0.0 0.0
2
Step 362, t=181.000 fs
H 0.0 0.0 0.0
H 957.21970 0.0 0.0
2
Step 363, t=181.500 fs
H 0.0 0.0 0.0
H 959.86810 0.0 0.0
2
Step 364, t=182.000 fs
H 0.0 0.0 0.0
H 962.51649 0.0 0.0
2
Step 365, t=182.500 fs
H 0.0 0.0 0.0
H 965.16489 0.0 0.0
2
Step 366, t=183.000 fs
H 0.0 0.0 0.0
H 967.81329 0.0 0.0
2
Step 367, t=183.500 fs
H 0.0 0.0 0.0
H 970.46168 0.0 0.0
2
Step 368, t=184.000 fs
H 0.0 0.0 0.0
H 973.11008 0.0 0.0
2
Step 369, t=184.500 fs
H 0.0 0.0 0.0
H 975.75847 0.0 0.0
2
Step 370, t=185.000 fs
H 0.0 0.0 0.0
H 978.40687 0.0 0.0
2
Step 371, t=185.500 fs
H 0.0 0.0 0.0
H 981.05527 0.0 0.0
2
Step 372, t=186.000 fs
H 0.0 0.0 0.0
H 983.70366 0.0 0.0
2
Step 373, t=186.500 fs
H 0.0 0.0 0.0
H 986.35206 0.0 0.0
2
Step 374, t=187.000 fs
H 0.0 0.0 0.0
H 989.00045 0.0 0.0
2
Step 375, t=187.500 fs
H 0.0 0.0 0.0
H 991.64885 0.0 0.0
2
Step 376, t=188.000 fs
H 0.0 0.0 0.0
H 994.29725 0.0 0.0
2
Step 377, t=188.500 fs
H 0.0 0.0 0.0
H 996.94564 0.0 0.0
2
Step 378, t=189.000 fs
H 0.0 0.0 0.0
H 999.59404 0.0 0.0
2
Step 379, t=189.500 fs
H 0.0 0.0 0.0
H 1002.24243 0.0 0.0
2
Step 380, t=190.000 fs
H 0.0 0.0 0.0
H 1004.89083 0.0 0.0
2
Step 381, t=190.500 fs
H 0.0 0.0 0.0
H 1007.53923 0.0 0.0
2
Step 382, t=191.000 fs
H 0.0 0.0 0.0
H 1010.18762 0.0 0.0
2
Step 383, t=191.500 fs
H 0.0 0.0 0.0
H 1012.83602 0.0 0.0
2
Step 384, t=192.000 fs
H 0.0 0.0 0.0
H 1015.48442 0.0 0.0
2
Step 385, t=192.500 fs
H 0.0 0.0 0.0
H 1018.13281 0.0 0.0
2
Step 386, t=193.000 fs
H 0.0 0.0 0.0
H 1020.78121 0.0 0.0
2
Step 387, t=193.500 fs
H 0.0 0.0 0.0
H 1023.42960 0.0 0.0
2
Step 388, t=194.000 fs
H 0.0 0.0 0.0
H 1026.07800 0.0 0.0
2
Step 389, t=194.500 fs
H 0.0 0.0 0.0
H 1028.72640 0.0 0.0
2
Step 390, t=195.000 fs
H 0.0 0.0 0.0
H 1031.37479 0.0 0.0
2
Step 391, t=195.500 fs
H 0.0 0.0 0.0
H 1034.02319 0.0 0.0
2
Step 392, t=196.000 fs
H 0.0 0.0 0.0
H 1036.67158 0.0 0.0
2
Step 393, t=196.500 fs
H 0.0 0.0 0.0
H 1039.31998 0.0 0.0
2
Step 394, t=197.000 fs
H 0.0 0.0 0.0
H 1041.96838 0.0 0.0
2
Step 395, t=197.500 fs
H 0.0 0.0 0.0
H 1044.61677 0.0 0.0
2
Step 396, t=198.000 fs
H 0.0 0.0 0.0
H 1047.26517 0.0 0.0
2
Step 397, t=198.500 fs
H 0.0 0.0 0.0
H 1049.91356 0.0 0.0
2
Step 398, t=199.000 fs
H 0.0 0.0 0.0
H 1052.56196 0.0 0.0
2
Step 399, t=199.500 fs
H 0.0 0.0 0.0
H 1055.21036 0.0 0.0
2
Step 400, t=200.000 fs
H 0.0 0.0 0.0
H 1057.85875 0.0 0.0
2
Step 401, t=200.500 fs
H 0.0 0.0 0.0
H 1060.50715 0.0 0.0
2
Step 402, t=201.000 fs
H 0.0 0.0 0.0
H 1063.15555 0.0 0.0
2
Step 403, t=201.500 fs
H 0.0 0.0 0.0
H 1065.80394 0.0 0.0
2
Step 404, t=202.000 fs
H 0.0 0.0 0.0
H 1068.45234 0.0 0.0
2
Step 405, t=202.500 fs
H 0.0 0.0 0.0
H 1071.10073 0.0 0.0
2
Step 406, t=203.000 fs
H 0.0 0.0 0.0
H 1073.74913 0.0 0.0
2
Step 407, t=203.500 fs
H 0.0 0.0 0.0
H 1076.39753 0.0 0.0
2
Step 408, t=204.000 fs
H 0.0 0.0 0.0
H 1079.04592 0.0 0.0
2
Step 409, t=204.500 fs
H 0.0 0.0 0.0
H 1081.69432 0.0 0.0
2
Step 410, t=205.000 fs
H 0.0 0.0 0.0
H 1084.34271 0.0 0.0
2
Step 411, t=205.500 fs
H 0.0 0.0 0.0
H 1086.99111 0.0 0.0
2
Step 412, t=206.000 fs
H 0.0 0.0 0.0
H 1089.63951 0.0 0.0
2
Step 413, t=206.500 fs
H 0.0 0.0 0.0
H 1092.28790 0.0 0.0
2
Step 414, t=207.000 fs
H 0.0 0.0 0.0
H 1094.93630 0.0 0.0
2
Step 415, t=207.500 fs
H 0.0 0.0 0.0
H 1097.58469 0.0 0.0
2
Step 416, t=208.000 fs
H 0.0 0.0 0.0
H 1100.23309 0.0 0.0
2
Step 417, t=208.500 fs
H 0.0 0.0 0.0
H 1102.88149 0.0 0.0
2
Step 418, t=209.000 fs
H 0.0 0.0 0.0
H 1105.52988 0.0 0.0
2
Step 419, t=209.500 fs
H 0.0 0.0 0.0
H 1108.17828 0.0 0.0
2
Step 420, t=210.000 fs
H 0.0 0.0 0.0
H 1110.82667 0.0 0.0
2
Step 421, t=210.500 fs
H 0.0 0.0 0.0
H 1113.47507 0.0 0.0
2
Step 422, t=211.000 fs
H 0.0 0.0 0.0
H 1116.12347 0.0 0.0
2
Step 423, t=211.500 fs
H 0.0 0.0 0.0
H 1118.77186 0.0 0.0
2
Step 424, t=212.000 fs
H 0.0 0.0 0.0
H 1121.42026 0.0 0.0
2
Step 425, t=212.500 fs
H 0.0 0.0 0.0
H 1124.06866 0.0 0.0
2
Step 426, t=213.000 fs
H 0.0 0.0 0.0
H 1126.71705 0.0 0.0
2
Step 427, t=213.500 fs
H 0.0 0.0 0.0
H 1129.36545 0.0 0.0
2
Step 428, t=214.000 fs
H 0.0 0.0 0.0
H 1132.01384 0.0 0.0
2
Step 429, t=214.500 fs
H 0.0 0.0 0.0
H 1134.66224 0.0 0.0
2
Step 430, t=215.000 fs
H 0.0 0.0 0.0
H 1137.31064 0.0 0.0
2
Step 431, t=215.500 fs
H 0.0 0.0 0.0
H 1139.95903 0.0 0.0
2
Step 432, t=216.000 fs
H 0.0 0.0 0.0
H 1142.60743 0.0 0.0
2
Step 433, t=216.500 fs
H 0.0 0.0 0.0
H 1145.25582 0.0 0.0
2
Step 434, t=217.000 fs
H 0.0 0.0 0.0
H 1147.90422 0.0 0.0
2
Step 435, t=217.500 fs
H 0.0 0.0 0.0
H 1150.55262 0.0 0.0
2
Step 436, t=218.000 fs
H 0.0 0.0 0.0
H 1153.20101 0.0 0.0
2
Step 437, t=218.500 fs
H 0.0 0.0 0.0
H 1155.84941 0.0 0.0
2
Step 438, t=219.000 fs
H 0.0 0.0 0.0
H 1158.49780 0.0 0.0
2
Step 439, t=219.500 fs
H 0.0 0.0 0.0
H 1161.14620 0.0 0.0
2
Step 440, t=220.000 fs
H 0.0 0.0 0.0
H 1163.79460 0.0 0.0
2
Step 441, t=220.500 fs
H 0.0 0.0 0.0
H 1166.44299 0.0 0.0
2
Step 442, t=221.000 fs
H 0.0 0.0 0.0
H 1169.09139 0.0 0.0
2
Step 443, t=221.500 fs
H 0.0 0.0 0.0
H 1171.73978 0.0 0.0
2
Step 444, t=222.000 fs
H 0.0 0.0 0.0
H 1174.38818 0.0 0.0
2
Step 445, t=222.500 fs
H 0.0 0.0 0.0
H 1177.03658 0.0 0.0
2
Step 446, t=223.000 fs
H 0.0 0.0 0.0
H 1179.68497 0.0 0.0
2
Step 447, t=223.500 fs
H 0.0 0.0 0.0
H 1182.33337 0.0 0.0
2
Step 448, t=224.000 fs
H 0.0 0.0 0.0
H 1184.98177 0.0 0.0
2
Step 449, t=224.500 fs
H 0.0 0.0 0.0
H 1187.63016 0.0 0.0
2
Step 450, t=225.000 fs
H 0.0 0.0 0.0
H 1190.27856 0.0 0.0
2
Step 451, t=225.500 fs
H 0.0 0.0 0.0
H 1192.92695 0.0 0.0
2
Step 452, t=226.000 fs
H 0.0 0.0 0.0
H 1195.57535 0.0 0.0
2
Step 453, t=226.500 fs
H 0.0 0.0 0.0
H 1198.22375 0.0 0.0
2
Step 454, t=227.000 fs
H 0.0 0.0 0.0
H 1200.87214 0.0 0.0
2
Step 455, t=227.500 fs
H 0.0 0.0 0.0
H 1203.52054 0.0 0.0
2
Step 456, t=228.000 fs
H 0.0 0.0 0.0
H 1206.16893 0.0 0.0
2
Step 457, t=228.500 fs
H 0.0 0.0 0.0
H 1208.81733 0.0 0.0
2
Step 458, t=229.000 fs
H 0.0 0.0 0.0
H 1211.46573 0.0 0.0
2
Step 459, t=229.500 fs
H 0.0 0.0 0.0
H 1214.11412 0.0 0.0
2
Step 460, t=230.000 fs
H 0.0 0.0 0.0
H 1216.76252 0.0 0.0
2
Step 461, t=230.500 fs
H 0.0 0.0 0.0
H 1219.41091 0.0 0.0
2
Step 462, t=231.000 fs
H 0.0 0.0 0.0
H 1222.05931 0.0 0.0
2
Step 463, t=231.500 fs
H 0.0 0.0 0.0
H 1224.70771 0.0 0.0
2
Step 464, t=232.000 fs
H 0.0 0.0 0.0
H 1227.35610 0.0 0.0
2
Step 465, t=232.500 fs
H 0.0 0.0 0.0
H 1230.00450 0.0 0.0
2
Step 466, t=233.000 fs
H 0.0 0.0 0.0
H 1232.65290 0.0 0.0
2
Step 467, t=233.500 fs
H 0.0 0.0 0.0
H 1235.30129 0.0 0.0
2
Step 468, t=234.000 fs
H 0.0 0.0 0.0
H 1237.94969 0.0 0.0
2
Step 469, t=234.500 fs
H 0.0 0.0 0.0
H 1240.59808 0.0 0.0
2
Step 470, t=235.000 fs
H 0.0 0.0 0.0
H 1243.24648 0.0 0.0
2
Step 471, t=235.500 fs
H 0.0 0.0 0.0
H 1245.89488 0.0 0.0
2
Step 472, t=236.000 fs
H 0.0 0.0 0.0
H 1248.54327 0.0 0.0
2
Step 473, t=236.500 fs
H 0.0 0.0 0.0
H 1251.19167 0.0 0.0
2
Step 474, t=237.000 fs
H 0.0 0.0 0.0
H 1253.84006 0.0 0.0
2
Step 475, t=237.500 fs
H 0.0 0.0 0.0
H 1256.48846 0.0 0.0
2
Step 476, t=238.000 fs
H 0.0 0.0 0.0
H 1259.13686 0.0 0.0
2
Step 477, t=238.500 fs
H 0.0 0.0 0.0
H 1261.78525 0.0 0.0
2
Step 478, t=239.000 fs
H 0.0 0.0 0.0
H 1264.43365 0.0 0.0
2
Step 479, t=239.500 fs
H 0.0 0.0 0.0
H 1267.08204 0.0 0.0
2
Step 480, t=240.000 fs
H 0.0 0.0 0.0
H 1269.73044 0.0 0.0
2
Step 481, t=240.500 fs
H 0.0 0.0 0.0
H 1272.37884 0.0 0.0
2
Step 482, t=241.000 fs
H 0.0 0.0 0.0
H 1275.02723 0.0 0.0
2
Step 483, t=241.500 fs
H 0.0 0.0 0.0
H 1277.67563 0.0 0.0
2
Step 484, t=242.000 fs
H 0.0 0.0 0.0
H 1280.32402 0.0 0.0
2
Step 485, t=242.500 fs
H 0.0 0.0 0.0
H 1282.97242 0.0 0.0
2
Step 486, t=243.000 fs
H 0.0 0.0 0.0
H 1285.62082 0.0 0.0
2
Step 487, t=243.500 fs
H 0.0 0.0 0.0
H 1288.26921 0.0 0.0
2
Step 488, t=244.000 fs
H 0.0 0.0 0.0
H 1290.91761 0.0 0.0
2
Step 489, t=244.500 fs
H 0.0 0.0 0.0
H 1293.56601 0.0 0.0
2
Step 490, t=245.000 fs
H 0.0 0.0 0.0
H 1296.21440 0.0 0.0
2
Step 491, t=245.500 fs
H 0.0 0.0 0.0
H 1298.86280 0.0 0.0
2
Step 492, t=246.000 fs
H 0.0 0.0 0.0
H 1301.51119 0.0 0.0
2
Step 493, t=246.500 fs
H 0.0 0.0 0.0
H 1304.15959 0.0 0.0
2
Step 494, t=247.000 fs
H 0.0 0.0 0.0
H 1306.80799 0.0 0.0
2
Step 495, t=247.500 fs
H 0.0 0.0 0.0
H 1309.45638 0.0 0.0
2
Step 496, t=248.000 fs
H 0.0 0.0 0.0
H 1312.10478 0.0 0.0
2
Step 497, t=248.500 fs
H 0.0 0.0 0.0
H 1314.75317 0.0 0.0
2
Step 498, t=249.000 fs
H 0.0 0.0 0.0
H 1317.40157 0.0 0.0
2
Step 499, t=249.500 fs
H 0.0 0.0 0.0
H 1320.04997 0.0 0.0
2
Step 500, t=250.000 fs
H 0.0 0.0 0.0
H 1322.69836 0.0 0.0
2
Step 501, t=250.500 fs
H 0.0 0.0 0.0
H 1325.34676 0.0 0.0
2
Step 502, t=251.000 fs
H 0.0 0.0 0.0
H 1327.99515 0.0 0.0
2
Step 503, t=251.500 fs
H 0.0 0.0 0.0
H 1330.64355 0.0 0.0
2
Step 504, t=252.000 fs
H 0.0 0.0 0.0
H 1333.29195 0.0 0.0
2
Step 505, t=252.500 fs
H 0.0 0.0 0.0
H 1335.94034 0.0 0.0
2
Step 506, t=253.000 fs
H 0.0 0.0 0.0
H 1338.58874 0.0 0.0
2
Step 507, t=253.500 fs
H 0.0 0.0 0.0
H 1341.23714 0.0 0.0
2
Step 508, t=254.000 fs
H 0.0 0.0 0.0
H 1343.88553 0.0 0.0
2
Step 509, t=254.500 fs
H 0.0 0.0 0.0
H 1346.53393 0.0 0.0
2
Step 510, t=255.000 fs
H 0.0 0.0 0.0
H 1349.18232 0.0 0.0
2
Step 511, t=255.500 fs
H 0.0 0.0 0.0
H 1351.83072 0.0 0.0
2
Step 512, t=256.000 fs