27
Step=0 t=0.000fs 
Cu  16.032816  16.032816  16.032816
Cu  16.032816  16.032816  18.898816
Cu  16.032816  16.032816  21.764816
Cu  16.032816  18.898816  16.032816
Cu  16.032816  18.898816  18.898816
Cu  16.032816  18.898816  21.764816
Cu  16.032816  21.764816  16.032816
Cu  16.032816  21.764816  18.898816
Cu  16.032816  21.764816  21.764816
Cu  18.898816  16.032816  16.032816
Cu  18.898816  16.032816  18.898816
Cu  18.898816  16.032816  21.764816
Cu  18.898816  18.898816  16.032816
Cu  18.898816  18.898816  18.898816
Cu  18.898816  18.898816  21.764816
Cu  18.898816  21.764816  16.032816
Cu  18.898816  21.764816  18.898816
Cu  18.898816  21.764816  21.764816
Cu  21.764816  16.032816  16.032816
Cu  21.764816  16.032816  18.898816
Cu  21.764816  16.032816  21.764816
Cu  21.764816  18.898816  16.032816
Cu  21.764816  18.898816  18.898816
Cu  21.764816  18.898816  21.764816
Cu  21.764816  21.764816  16.032816
Cu  21.764816  21.764816  18.898816
Cu  21.764816  21.764816  21.764816
27
Step=100 t=100.000fs 
Cu  16.145890  16.202226  16.629415
Cu  16.527314  16.001032  19.046503
Cu  16.325994  16.536504  21.587304
Cu  16.071640  18.834977  16.540421
Cu  16.599102  19.247791  18.883938
Cu  16.032094  18.927945  21.197503
Cu  16.546969  21.636594  16.580464
Cu  16.147552  22.001577  19.189045
Cu  16.142876  21.343718  21.706264
Cu  18.776656  15.991239  16.382705
Cu  19.053867  16.721584  18.710927
Cu  18.905315  16.262445  21.164948
Cu  18.678094  18.791779  16.324165
Cu  18.989737  18.977356  19.275199
Cu  18.807099  18.872048  21.770674
Cu  19.227598  21.405901  16.059644
Cu  18.710879  21.184969  18.646599
Cu  18.737081  21.747081  21.541088
Cu  21.600344  16.500259  16.096891
Cu  21.538869  15.944746  18.705717
Cu  21.625575  16.131155  21.559322
Cu  21.569110  19.023320  16.160852
Cu  21.382797  18.602714  18.653826
Cu  21.409615  18.810250  21.260595
Cu  21.912688  21.507892  15.838205
Cu  21.321127  21.250241  18.987951
Cu  21.482143  21.810680  21.767860
27
Step=200 t=200.000fs 
Cu  16.149350  16.405367  16.711076
Cu  16.989743  16.666050  19.391145
Cu  16.724068  16.461621  22.076084
Cu  16.017587  18.921470  16.295480
Cu  16.957820  19.236517  18.684965
Cu  16.035247  18.879520  20.800179
Cu  16.920573  21.135801  16.696544
Cu  16.224858  21.990972  19.522978
Cu  16.238814  21.337803  22.045208
Cu  18.769032  15.908519  16.026271
Cu  19.253159  16.856352  18.431804
Cu  19.053997  16.780846  20.852274
Cu  18.699851  18.868777  17.239814
Cu  19.099640  19.143950  19.734562
Cu  18.248860  19.024687  22.308282
Cu  19.471596  20.988864  16.201780
Cu  18.755506  21.567470  18.424364
Cu  18.694667  21.229792  20.717478
Cu  21.292427  16.659972  16.275109
Cu  21.314890  15.512043  18.803439
Cu  21.532720  16.447325  21.254165
Cu  20.954965  19.233748  16.051739
Cu  21.412282  18.150751  18.274594
Cu  21.137064  19.009452  21.053297
Cu  22.148206  21.792605  16.177037
Cu  20.918418  20.650100  18.672310
Cu  21.252683  21.407651  21.546044
27
Step=300 t=300.000fs 
Cu  16.474719  16.438638  17.250168
Cu  16.807094  17.135744  19.572939
Cu  16.979933  16.474138  22.609380
Cu  15.966665  18.665039  15.610726
Cu  16.346184  19.573481  18.269367
Cu  15.770663  19.024114  21.291935
Cu  16.726219  21.423256  16.521388
Cu  16.213008  21.641185  19.530425
Cu  16.396802  21.179154  22.739150
Cu  18.507482  16.033404  15.450906
Cu  19.230580  16.577178  18.166506
Cu  19.255009  17.036250  21.361787
Cu  18.779839  18.939114  16.777767
Cu  18.902697  19.037796  19.400728
Cu  18.102524  19.051587  22.870901
Cu  19.527505  21.629568  15.445207
Cu  18.780707  22.321299  18.411091
Cu  18.452248  21.006404  20.938610
Cu  21.220734  16.329029  16.318437
Cu  21.383454  14.608514  18.763758
Cu  22.021475  16.278328  21.062013
Cu  21.277165  19.107727  15.636984
Cu  21.910038  17.833285  18.843669
Cu  21.073110  19.009556  21.238616
Cu  22.221682  21.947190  16.734961
Cu  20.925373  20.388305  18.362383
Cu  21.015115  21.578744  21.088223
27
Step=400 t=400.000fs 
Cu  16.862772  16.742639  17.463325
Cu  17.250071  17.444593  20.435336
Cu  16.891680  16.817692  22.753061
Cu  16.526682  18.517106  15.242063
Cu  16.321392  19.050771  18.021428
Cu  16.034161  19.339230  21.382031
Cu  17.082283  21.514425  16.574490
Cu  16.331720  21.476360  19.796218
Cu  16.394259  21.266488  23.286371
Cu  18.644681  16.787646  15.224186
Cu  19.188714  16.701724  18.446268
Cu  19.583690  16.805058  21.007087
Cu  18.706529  18.953579  16.454143
Cu  18.466130  19.010679  19.080509
Cu  18.490348  18.952373  22.759126
Cu  19.678063  21.597030  15.472162
Cu  18.831115  21.957416  18.477997
Cu  18.339147  20.649260  20.962690
Cu  21.004594  16.325930  16.621133
Cu  21.157111  14.575359  18.698949
Cu  22.193398  15.724380  20.911107
Cu  21.325721  19.203977  16.000671
Cu  21.344398  17.597600  18.869583
Cu  20.498553  19.278190  20.956332
Cu  21.866254  21.902715  17.068835
Cu  20.521089  20.015155  18.215129
Cu  20.733472  22.060651  20.087796
27
Step=500 t=500.000fs 
Cu  16.788507  16.945039  17.167010
Cu  17.200382  17.116415  20.189176
Cu  16.707411  17.072281  23.269335
Cu  16.708053  18.762815  15.119824
Cu  15.767725  19.240205  18.092676
Cu  16.109034  19.413093  21.256148
Cu  16.842654  20.859370  16.418216
Cu  16.246413  21.454624  19.234886
Cu  16.881414  21.196110  23.296830
Cu  18.932671  17.137382  15.236627
Cu  19.034217  16.641575  18.437342
Cu  19.847617  16.621943  20.973363
Cu  18.756686  18.934866  16.944558
Cu  18.190488  19.082600  19.379820
Cu  18.932921  18.555303  22.531176
Cu  19.688605  21.151544  15.869989
Cu  18.651427  21.501423  18.478135
Cu  18.476533  21.216826  21.198875
Cu  20.929007  16.648801  16.579452
Cu  20.656392  14.858737  18.682531
Cu  22.285801  15.587294  20.908667
Cu  21.495292  18.955951  15.949770
Cu  21.509788  17.596767  18.980468
Cu  20.489077  19.449238  20.702917
Cu  21.650723  22.069736  17.330299
Cu  20.681700  19.976374  18.284850
Cu  20.807487  22.221716  19.755084
27
Step=600 t=600.000fs 
Cu  16.554007  16.962664  16.888592
Cu  16.704020  16.486315  20.216141
Cu  16.554334  17.555892  23.201003
Cu  16.792697  18.778162  14.813892
Cu  15.537493  18.874207  18.586322
Cu  16.206215  19.263533  21.142682
Cu  16.530764  21.111935  16.567273
Cu  16.138687  21.544037  19.181387
Cu  17.342520  20.616365  23.246418
Cu  18.996181  17.271317  15.009554
Cu  18.976386  16.859021  18.577811
Cu  19.659528  16.693717  20.836956
Cu  18.399307  19.192142  17.134991
Cu  18.473214  19.292657  19.709392
Cu  18.489385  18.800252  22.247453
Cu  19.387943  20.805937  15.812871
Cu  18.821522  21.443621  18.238188
Cu  18.561311  21.538533  20.999207
Cu  21.147476  16.452033  16.765545
Cu  20.581576  14.734825  18.988589
Cu  22.521464  15.582933  20.807291
Cu  21.518689  19.193040  15.692785
Cu  21.826305  17.473512  19.171850
Cu  20.871178  19.470789  20.862523
Cu  21.856527  22.425112  17.055661
Cu  20.884179  19.675532  18.264482
Cu  20.935120  22.169942  20.249166
27
Step=700 t=700.000fs 
Cu  16.785568  16.568788  16.926787
Cu  16.914895  16.860937  20.154341
Cu  16.269030  17.703088  22.937976
Cu  16.992996  19.176451  14.707623
Cu  16.138216  18.627540  18.585533
Cu  16.037345  19.503327  21.280137
Cu  16.631010  21.216255  16.912377
Cu  16.448012  21.200670  19.488544
Cu  17.174143  20.494835  23.528222
Cu  19.199413  17.726668  15.558170
Cu  19.039854  16.988903  18.164156
Cu  19.771944  16.709472  20.971417
Cu  17.899296  19.108262  17.043463
Cu  18.627846  19.100960  19.480774
Cu  18.754570  18.878164  21.935569
Cu  19.157565  20.883677  15.268322
Cu  19.033909  21.763633  18.222196
Cu  18.422786  21.277382  20.964539
Cu  21.098274  16.670366  16.959981
Cu  20.356485  14.925803  19.246466
Cu  22.473122  15.585745  20.989838
Cu  21.231774  19.095060  15.714840
Cu  21.562746  17.559310  19.237236
Cu  21.166972  19.386172  21.046869
Cu  21.288685  21.877593  17.103541
Cu  20.554753  19.677188  18.000220
Cu  21.236815  21.701775  19.838889
27
Step=800 t=800.000fs 
Cu  16.915323  16.375426  16.823807
Cu  17.396029  17.173304  20.417672
Cu  16.438383  17.267970  22.867209
Cu  16.873039  19.421705  14.731684
Cu  16.057419  18.628263  18.238448
Cu  16.217401  19.581813  21.148132
Cu  16.434402  21.525981  16.422090
Cu  16.519709  21.152764  19.272099
Cu  17.008075  20.552934  23.657612
Cu  19.038617  17.485874  15.537341
Cu  18.873372  17.209094  18.232880
Cu  19.789738  16.881841  21.252798
Cu  18.055025  19.567399  17.322961
Cu  18.472488  19.464855  19.901523
Cu  18.614211  18.657591  22.509129
Cu  19.069231  20.993699  15.292036
Cu  18.751954  21.823122  18.366263
Cu  19.233277  21.283927  21.324557
Cu  21.592802  16.599896  16.764677
Cu  20.255379  14.916083  18.949240
Cu  22.134795  15.873251  21.107992
Cu  21.439336  19.236854  15.506571
Cu  21.566406  17.532221  19.356674
Cu  20.956014  19.226402  21.272578
Cu  21.007264  21.483684  16.654657
Cu  20.515413  19.176247  18.033651
Cu  21.042922  21.175827  19.303743
27
Step=900 t=900.000fs 
Cu  16.996380  16.671751  16.837553
Cu  16.997819  16.929984  20.020054
Cu  16.535742  16.907891  22.973668
Cu  16.719946  18.889817  15.236290
Cu  15.760910  18.558774  18.367358
Cu  16.379022  19.231481  21.231391
Cu  16.261756  21.741679  16.078810
Cu  16.436326  21.229702  18.918731
Cu  16.942618  20.697323  23.426247
Cu  19.183776  17.761781  15.689200
Cu  19.010165  17.387183  18.623810
Cu  19.377331  16.727132  21.131202
Cu  18.130405  19.725312  17.281926
Cu  18.795406  19.480261  19.834173
Cu  18.689398  18.823444  23.075414
Cu  18.815418  20.886698  15.092948
Cu  18.932000  22.026459  18.221376
Cu  19.382889  21.767029  21.818381
Cu  21.391836  16.719666  16.699251
Cu  20.226187  15.320744  18.709615
Cu  22.242435  15.598870  21.570249
Cu  21.347259  18.993456  15.021296
Cu  21.807118  17.480847  19.225142
Cu  20.935273  19.140675  21.417747
Cu  21.165989  21.630057  16.695488
Cu  20.529782  19.149039  17.488051
Cu  21.274842  20.790971  19.582654
27
Step=1000 t=1000.000fs 
Cu  17.235026  16.627818  17.360529
Cu  16.616050  16.455868  19.699495
Cu  17.002998  16.946086  22.604847
Cu  16.231551  18.725540  15.648387
Cu  15.754209  18.750553  18.429093
Cu  16.803345  18.990668  20.931171
Cu  16.668542  21.386597  16.314679
Cu  16.588939  21.189284  19.190043
Cu  16.847800  21.078738  22.907965
Cu  19.055562  18.106537  15.750549
Cu  19.161048  17.787642  18.528492
Cu  19.047899  16.945793  20.963711
Cu  17.937381  19.585710  17.491575
Cu  18.976087  19.808939  20.033005
Cu  18.799689  18.855966  22.753231
Cu  19.008441  20.488651  15.283918
Cu  19.107160  21.853760  18.190622
Cu  19.146910  21.371537  21.698905
Cu  21.103218  16.831388  16.667770
Cu  20.283414  15.273120  18.953130
Cu  21.898813  15.689531  21.625023
Cu  21.248290  19.306482  14.456675
Cu  21.536975  17.896277  19.390318
Cu  21.003846  18.532746  21.766102
Cu  21.256513  21.665649  16.534800
Cu  20.642428  19.429468  17.479710
Cu  21.305892  20.687676  19.614281
27
Step=1100 t=1100.000fs 
Cu  17.273708  16.251388  17.033429
Cu  16.592641  16.211863  19.916127
Cu  17.093749  16.754775  22.504208
Cu  16.046690  18.798812  15.866800
Cu  15.517663  18.541042  18.422127
Cu  17.028343  18.834192  20.398492
Cu  16.752701  21.475791  16.816311
Cu  17.128155  21.412297  19.904616
Cu  16.546229  20.972335  22.151847
Cu  18.683220  17.806713  15.455569
Cu  19.004666  17.250889  18.306082
Cu  19.056751  17.175490  21.027369
Cu  17.880380  19.300684  17.810758
Cu  19.421273  19.396103  19.958145
Cu  18.508497  19.256490  22.662905
Cu  19.009200  20.825884  15.601417
Cu  19.297008  21.609841  18.281067
Cu  19.453249  21.557313  21.423237
Cu  21.030203  16.943729  16.920784
Cu  20.104107  15.288855  19.163388
Cu  21.202244  16.097713  21.305011
Cu  21.202594  19.406942  14.674847
Cu  21.611887  17.966758  19.338988
Cu  21.210096  18.754557  22.036682
Cu  21.438297  22.016307  16.187729
Cu  20.617750  19.504629  17.295366
Cu  21.556725  20.856631  19.804723
27
Step=1200 t=1200.000fs 
Cu  16.401844  16.016019  16.651678
Cu  17.097742  16.141672  19.359525
Cu  16.811492  16.855672  22.846830
Cu  16.323721  18.894082  15.847844
Cu  15.251325  18.131638  18.376959
Cu  17.053374  18.779636  20.241883
Cu  16.390371  21.676612  17.535312
Cu  17.588257  21.209557  19.729699
Cu  16.075773  20.548804  21.962674
Cu  18.843995  18.110518  15.712255
Cu  18.956568  17.359369  18.400488
Cu  19.062548  17.044922  21.049037
Cu  17.857549  19.492134  17.845482
Cu  19.524752  19.558192  19.874821
Cu  18.535293  19.433682  22.506803
Cu  18.646574  20.778549  15.839516
Cu  19.860799  21.808226  18.173693
Cu  19.761575  21.800799  21.111972
Cu  21.120550  16.817701  16.751592
Cu  19.822088  14.808318  18.964866
Cu  21.425260  16.229129  21.439560
Cu  21.065997  19.221508  15.227009
Cu  21.705197  17.907843  19.442627
Cu  21.154079  19.555843  21.960563
Cu  21.392908  21.902904  16.323446
Cu  20.465060  19.352985  17.557978
Cu  22.073335  20.831710  19.533915
27
Step=1300 t=1300.000fs 
Cu  16.471511  16.573039  16.518068
Cu  17.066618  15.859686  19.207551
Cu  16.802587  17.538726  22.452460
Cu  16.303245  19.221636  15.851898
Cu  15.470450  18.116356  18.277172
Cu  17.007396  18.204309  20.213761
Cu  16.030516  21.484781  17.661176
Cu  17.526677  21.383598  20.249252
Cu  15.650041  20.005287  21.738174
Cu  18.638697  17.867616  16.053524
Cu  19.059143  17.418818  18.533690
Cu  19.163476  17.070290  20.986176
Cu  17.666566  19.526126  18.207644
Cu  19.489528  19.437299  19.921141
Cu  18.490178  19.588686  22.131468
Cu  18.687655  20.897063  16.064848
Cu  19.521431  22.030390  18.597384
Cu  20.151098  22.036530  21.078134
Cu  21.190038  16.656894  16.903272
Cu  19.690614  15.105997  19.031651
Cu  21.776135  16.370539  21.669378
Cu  21.259019  19.080191  15.008282
Cu  21.476635  17.748848  19.385712
Cu  21.403643  19.556603  21.560940
Cu  21.582712  21.337348  16.271171
Cu  20.509602  19.554891  17.632319
Cu  22.182814  20.596479  19.061780
27
Step=1400 t=1400.000fs 
Cu  16.854809  16.679154  16.683914
Cu  16.871674  15.623185  19.212075
Cu  16.901690  17.578777  22.761720
Cu  16.393114  19.650725  15.814812
Cu  15.221543  18.657343  18.214400
Cu  17.311283  18.400494  20.178277
Cu  15.836807  21.342465  18.059182
Cu  17.225194  21.225448  20.414691
Cu  15.286571  19.530839  21.205425
Cu  18.757581  18.262821  15.617245
Cu  18.713090  17.254260  18.316451
Cu  19.372824  17.248162  21.299635
Cu  17.799460  19.654100  17.997892
Cu  19.655007  19.672254  19.865046
Cu  18.552528  19.876252  22.313597
Cu  18.689101  21.058147  15.866954
Cu  19.175154  21.789686  18.410575
Cu  20.515252  21.691120  21.178061
Cu  20.986297  16.747782  16.970591
Cu  20.132612  15.353306  19.342681
Cu  21.905623  16.568982  21.842343
Cu  21.050774  18.441180  14.844656
Cu  21.332066  17.762203  19.289549
Cu  21.701010  19.073591  21.513954
Cu  21.669773  21.426426  16.536893
Cu  20.432041  19.166040  17.470752
Cu  21.925148  20.533283  19.046655
27
Step=1500 t=1500.000fs 
Cu  16.670215  17.148880  16.942241
Cu  16.939917  16.005105  19.738850
Cu  17.176335  17.534469  22.728116
Cu  16.117077  19.808862  15.764535
Cu  15.538038  18.795664  18.262629
Cu  17.113954  18.249943  20.150053
Cu  15.661896  21.527851  18.428919
Cu  17.493184  20.856725  20.266135
Cu  14.822682  19.326459  20.615177
Cu  18.526007  18.387404  15.306104
Cu  19.063600  17.262753  18.530248
Cu  19.513145  17.358686  21.423967
Cu  17.914356  19.581765  17.661597
Cu  19.513704  19.499665  19.709944
Cu  18.811897  19.772189  22.461476
Cu  18.918723  21.159720  15.350880
Cu  19.360618  21.735724  18.409258
Cu  20.340736  21.531898  21.170415
Cu  20.521029  16.355952  16.594945
Cu  20.344466  15.364327  19.897645
Cu  21.969991  16.267938  21.743010
Cu  21.388593  18.498134  14.828189
Cu  21.595711  17.834852  19.415891
Cu  21.507767  19.254252  21.880620
Cu  21.234108  21.512442  16.528152
Cu  20.287598  19.103649  17.142542
Cu  21.922678  20.532720  19.316486
27
Step=1600 t=1600.000fs 
Cu  17.299398  17.114457  17.091606
Cu  17.325307  15.715699  20.208176
Cu  17.075575  17.462722  22.368111
Cu  15.834419  20.183515  15.777217
Cu  15.217448  18.869745  18.242168
Cu  17.332552  18.585659  20.015771
Cu  15.973920  21.479642  18.434094
Cu  17.555890  21.121693  20.365178
Cu  14.555423  19.555254  20.763678
Cu  18.633895  18.141442  15.219703
Cu  18.961822  17.148069  18.678003
Cu  19.548262  17.206548  21.236969
Cu  17.809596  19.758960  17.684166
Cu  19.858203  19.390713  19.893466
Cu  18.709495  19.600818  22.354949
Cu  18.784353  20.675689  15.527726
Cu  19.452015  21.683760  18.339220
Cu  19.770222  21.958162  21.039669
Cu  20.004132  16.278901  16.452256
Cu  20.014318  14.985800  19.870633
Cu  22.135460  16.369192  21.700170
Cu  21.508473  18.975184  14.983238
Cu  21.870118  17.678805  19.158494
Cu  21.344041  19.139006  21.860553
Cu  21.344181  21.492200  16.522174
Cu  20.333874  19.056052  17.385547
Cu  22.015636  20.640341  19.095090
27
Step=1700 t=1700.000fs 
Cu  16.955098  16.917704  17.297265
Cu  17.540386  15.668075  20.214731
Cu  16.559414  17.391600  22.193279
Cu  16.243326  20.135210  15.983340
Cu  15.130871  18.549086  18.170145
Cu  17.069326  18.350422  20.035431
Cu  16.248080  21.479342  18.075499
Cu  17.228468  21.406906  20.606795
Cu  15.363424  19.876558  20.929131
Cu  18.650857  18.191352  15.079177
Cu  19.221884  17.345749  18.958750
Cu  19.495835  17.267343  21.496075
Cu  17.903995  19.365158  17.785637
Cu  19.408042  19.726478  19.876177
Cu  18.386523  19.619066  22.140903
Cu  18.872833  20.788258  15.937788
Cu  19.191372  21.694020  18.244275
Cu  20.214162  21.992702  20.971530
Cu  20.016872  16.393738  16.647612
Cu  20.120848  14.735575  19.432400
Cu  22.062268  16.576769  21.414252
Cu  21.142917  19.158786  15.157957
Cu  21.739032  17.213939  18.951843
Cu  21.607932  19.276613  21.489978
Cu  21.578559  21.388222  16.501879
Cu  20.456944  19.082509  17.505046
Cu  21.858759  20.676848  19.171130
27
Step=1800 t=1800.000fs 
Cu  17.157076  16.587013  17.482491
Cu  17.498568  15.563284  19.954427
Cu  16.215971  17.417731  22.467656
Cu  16.317245  19.531409  15.572089
Cu  15.262883  18.920682  18.242677
Cu  17.025060  18.207462  20.032777
Cu  16.492000  21.202691  18.201965
Cu  17.858868  21.782667  20.535529
Cu  15.568994  20.023979  21.058677
Cu  18.393276  18.113728  15.673987
Cu  19.415841  17.245758  19.036012
Cu  19.247502  17.418578  21.732182
Cu  17.979115  19.216374  17.787814
Cu  19.202834  19.581479  19.927249
Cu  17.960232  19.706024  22.371039
Cu  19.131509  21.003979  15.816100
Cu  19.222059  21.910130  18.399711
Cu  20.379531  21.782624  21.030704
Cu  20.121225  16.640930  16.772081
Cu  20.430796  15.165749  19.071097
Cu  21.777787  16.420982  21.221220
Cu  20.862729  18.786962  14.800147
Cu  21.897042  17.495593  18.705611
Cu  21.208580  19.035848  21.204440
Cu  21.509907  21.707172  16.800077
Cu  20.334666  19.226971  17.447632
Cu  21.796728  20.572227  18.922633
27
Step=1900 t=1900.000fs 
Cu  17.541622  16.655374  17.836955
Cu  17.759638  15.377910  20.151821
Cu  16.237042  17.527080  22.429304
Cu  15.975741  19.492707  15.619980
Cu  15.246653  18.816425  18.228196
Cu  16.973201  18.170657  19.978493
Cu  16.735905  21.509241  18.504025
Cu  17.681203  22.091763  20.790546
Cu  15.641479  20.340385  20.770367
Cu  18.214267  17.960105  15.487717
Cu  19.621332  17.616149  19.074357
Cu  18.710453  17.083877  21.827636
Cu  17.844230  19.212820  17.786685
Cu  18.971470  20.045797  19.972714
Cu  17.946368  19.812881  22.374804
Cu  18.538396  20.637667  15.655148
Cu  19.556163  21.691443  18.379881
Cu  20.611376  21.478271  21.260169
Cu  20.635000  16.458563  16.735263
Cu  20.636495  14.919858  18.762645
Cu  21.210847  16.127503  20.957778
Cu  20.792134  18.731569  14.770120
Cu  22.268143  18.062736  18.642157
Cu  21.081168  18.765592  21.262795
Cu  21.533200  21.904625  16.326049
Cu  20.408914  19.335326  17.343705
Cu  21.895585  20.441697  19.338715
27
Step=2000 t=2000.000fs 
Cu  17.893759  16.593851  17.735582
Cu  18.389095  15.384501  20.232306
Cu  15.979900  17.855250  22.298938
Cu  15.862271  19.598075  16.092539
Cu  15.185814  18.533836  18.332634
Cu  17.242616  17.793133  20.045904
Cu  16.946935  21.573677  18.205384
Cu  17.929384  22.490044  21.110529
Cu  15.992110  20.309380  20.330462
Cu  18.223904  17.730139  15.400236
Cu  19.732761  17.577693  19.218738
Cu  18.856346  17.281848  22.086642
Cu  17.874073  19.168278  17.774758
Cu  18.861808  20.005321  19.864862
Cu  18.210405  19.714569  22.375805
Cu  18.462251  20.845383  15.663141
Cu  19.534503  21.814906  18.169074
Cu  20.291352  21.505107  21.859495
Cu  20.724331  17.053633  16.719161
Cu  20.125244  14.678959  18.382045
Cu  20.773236  15.935281  20.755375
Cu  20.689961  18.960851  14.941632
Cu  22.406031  17.597233  18.781228
Cu  20.694503  18.863820  21.205866
Cu  21.281121  21.300713  15.938684
Cu  20.421377  19.451199  17.443654
Cu  21.682935  20.651349  19.303349
27
Step=2100 t=2100.000fs 
Cu  17.661501  16.175540  17.522768
Cu  18.388326  15.140793  20.302820
Cu  15.898789  18.382202  22.024476
Cu  16.080136  19.781582  16.129692
Cu  15.428569  18.110365  18.762812
Cu  17.397225  17.650865  20.071866
Cu  16.986727  21.431909  17.885833
Cu  17.874884  22.404161  20.674995
Cu  16.703003  20.009770  20.190252
Cu  18.181157  18.082592  15.499863
Cu  19.592961  17.538394  19.386191
Cu  18.830380  17.283952  22.260085
Cu  17.748324  18.893501  17.866630
Cu  19.041799  20.225533  19.733500
Cu  17.958146  19.939079  22.394772
Cu  18.566593  20.788084  15.943430
Cu  19.617890  22.398209  17.992920
Cu  20.304225  21.342525  22.044612
Cu  20.422993  16.977619  16.730253
Cu  19.914002  14.933805  17.934087
Cu  21.263017  15.797825  20.779149
Cu  20.347491  18.998016  14.602107
Cu  22.084811  17.642060  19.133691
Cu  20.875798  18.772777  21.226317
Cu  21.340761  21.323538  16.107997
Cu  20.173753  19.493552  17.585014
Cu  21.584763  20.749777  19.481892
27
Step=2200 t=2200.000fs 
Cu  17.088023  16.331271  17.861518
Cu  18.447558  15.008318  20.307486
Cu  15.474966  18.582721  22.016963
Cu  15.737922  19.665760  16.239177
Cu  15.117488  17.925248  18.493742
Cu  17.210550  17.421901  20.363550
Cu  17.202287  21.526376  17.885481
Cu  17.982627  22.386483  20.267208
Cu  16.281970  20.038791  19.897136
Cu  17.859671  17.911937  15.531296
Cu  19.626104  17.182430  19.068383
Cu  18.973439  17.169466  22.338363
Cu  17.907064  18.780903  18.123017
Cu  19.299309  19.822627  19.816122
Cu  18.253759  19.928021  22.043328
Cu  18.640120  20.727328  16.038914
Cu  19.690161  22.378848  18.304521
Cu  20.519364  21.258713  21.759201
Cu  20.185359  17.200477  16.559925
Cu  20.266581  14.854668  18.366358
Cu  21.070615  15.848780  20.841020
Cu  20.416992  19.194179  14.579669
Cu  22.052159  18.384179  18.702021
Cu  20.990635  18.606124  21.427183
Cu  21.728870  21.567858  16.585035
Cu  20.412307  19.590414  17.465076
Cu  21.832124  20.974205  19.386332
27
Step=2300 t=2300.000fs 
Cu  17.586573  16.181716  17.993087
Cu  18.291587  15.233040  20.349535
Cu  15.250221  18.736546  22.076004
Cu  15.602530  19.662882  16.682712
Cu  15.076196  17.913860  18.549137
Cu  17.150861  17.753417  20.261253
Cu  17.133225  21.580630  17.923869
Cu  18.178005  21.848176  20.696126
Cu  16.292875  20.097050  19.738875
Cu  17.560526  17.782083  15.611295
Cu  19.522355  17.521480  19.191625
Cu  18.873098  17.034587  22.220345
Cu  17.706468  18.985302  17.767585
Cu  19.247096  19.818491  19.732699
Cu  17.911042  19.389925  21.923696
Cu  18.531339  20.863365  15.625689
Cu  19.705695  21.942955  18.473227
Cu  20.608353  21.471096  21.320688
Cu  20.024385  16.923963  16.656248
Cu  20.581488  14.967501  18.377887
Cu  20.946382  16.136647  20.837922
Cu  20.667653  19.276195  15.105292
Cu  22.176215  18.262571  18.647034
Cu  21.259358  18.774275  21.015795
Cu  21.992621  21.706937  16.684168
Cu  20.192282  19.491290  17.421050
Cu  22.199596  20.912045  19.385181
27
Step=2400 t=2400.000fs 
Cu  17.812015  16.231210  17.636690
Cu  18.319470  15.256992  20.195369
Cu  15.319547  18.729318  21.655803
Cu  15.572133  20.008951  16.625082
Cu  15.273105  17.510119  18.715444
Cu  17.345847  17.696636  20.207942
Cu  17.217047  22.032673  18.073031
Cu  17.512232  22.012974  21.143502
Cu  16.041224  20.064117  19.655121
Cu  17.382383  18.013956  15.519576
Cu  19.657866  17.517505  19.373710
Cu  19.110178  17.241625  21.963612
Cu  17.737301  18.976211  17.813081
Cu  18.848800  19.965023  19.969433
Cu  17.909431  19.673293  22.415260
Cu  18.123604  20.702205  15.859241
Cu  19.928583  21.933755  18.336477
Cu  20.582438  21.633878  21.231207
Cu  19.997803  17.200958  16.534953
Cu  20.541566  15.205185  18.513226
Cu  21.418037  16.171666  20.901763
Cu  21.210440  18.941218  15.084407
Cu  22.034125  17.452878  18.337575
Cu  20.998735  18.915666  21.012416
Cu  21.707981  21.238232  16.609669
Cu  20.274251  19.596891  17.803748
Cu  22.391883  20.344892  19.080689
27
Step=2500 t=2500.000fs 
Cu  17.660058  16.296474  17.740805
Cu  18.428427  15.248297  20.154334
Cu  15.330803  18.531957  21.527169
Cu  15.697447  20.104428  16.860290
Cu  15.526980  17.532550  18.234995
Cu  17.454144  17.771569  20.414243
Cu  17.415822  21.880441  18.360423
Cu  17.163406  22.368734  21.111817
Cu  15.749686  20.146782  19.450971
Cu  17.355637  18.182938  15.401867
Cu  19.610364  17.365418  19.296485
Cu  19.446358  17.310947  22.109716
Cu  17.653679  18.733320  18.151093
Cu  18.400414  20.225286  19.966580
Cu  18.160729  19.914985  22.537915
Cu  18.891490  20.539413  16.301387
Cu  19.981713  22.115409  18.561437
Cu  20.164461  21.617614  21.050178
Cu  19.550891  17.382338  16.481022
Cu  20.329693  15.140718  18.280924
Cu  21.854677  16.278695  20.895641
Cu  21.511247  18.758935  15.165072
Cu  22.098583  17.291671  18.119148
Cu  20.945042  19.124721  20.930459
Cu  21.489503  21.123318  16.307598
Cu  20.101085  19.531623  17.908450
Cu  22.295686  19.749446  18.948006
27
Step=2600 t=2600.000fs 
Cu  17.594483  15.818603  18.038769
Cu  18.447282  15.277026  20.627618
Cu  15.200593  18.519312  21.877595
Cu  15.948158  20.313596  16.732059
Cu  15.323628  17.890347  18.171572
Cu  17.308343  17.776301  20.399368
Cu  17.493630  21.610080  18.089973
Cu  17.151577  22.076422  20.798728
Cu  15.693684  20.243293  19.775685
Cu  17.180784  18.270204  15.482942
Cu  19.513883  17.272929  19.344422
Cu  19.490961  17.183658  22.249041
Cu  17.840765  18.825005  17.857532
Cu  18.384417  19.986718  19.877432
Cu  18.248780  19.650757  22.364265
Cu  18.782254  20.551643  15.990652
Cu  20.163345  21.998126  18.577895
Cu  19.859013  21.875030  21.432075
Cu  19.476854  17.417171  16.738080
Cu  20.300132  15.099054  17.782451
Cu  21.851563  16.685819  20.347206
Cu  21.517421  18.465379  15.646535
Cu  21.898018  17.378593  17.739843
Cu  20.696660  19.273958  20.889550
Cu  21.633371  21.336217  16.487789
Cu  20.336909  19.484660  18.189126
Cu  22.931518  19.988124  18.759822
27
Step=2700 t=2700.000fs 
Cu  17.179643  16.109448  18.205884
Cu  18.629518  15.125865  20.760974
Cu  15.410214  18.681489  22.222210
Cu  15.586540  20.361651  16.619557
Cu  15.173137  17.893779  18.102710
Cu  16.889367  17.595192  20.382234
Cu  17.910476  21.713775  17.991810
Cu  17.195960  21.992735  20.833133
Cu  16.011106  20.088754  19.553554
Cu  16.954371  17.892379  15.375402
Cu  19.523204  17.521849  19.301675
Cu  19.578487  17.349911  21.923629
Cu  17.684787  18.965219  17.827455
Cu  18.806751  19.782398  19.929108
Cu  17.857430  19.355415  22.230371
Cu  18.964861  19.997007  15.993872
Cu  20.290542  21.859829  19.148765
Cu  19.716836  21.949845  21.721991
Cu  19.369734  17.259253  16.411705
Cu  20.211455  15.233906  17.954323
Cu  21.676360  16.982081  20.455019
Cu  21.289713  18.958777  15.498469
Cu  22.086837  17.450424  17.789624
Cu  21.033539  19.455481  20.702943
Cu  21.901063  21.293811  16.543502
Cu  20.352499  19.352105  18.049208
Cu  22.983597  20.045649  18.738898
27
Step=2800 t=2800.000fs 
Cu  17.433381  16.295586  17.888112
Cu  18.704545  15.339399  20.365385
Cu  15.183774  19.050560  22.143950
Cu  15.835947  20.097495  16.755798
Cu  14.822733  17.673382  17.777201
Cu  17.096367  17.523717  20.462263
Cu  18.283284  21.367922  18.014338
Cu  17.329346  21.990532  20.873404
Cu  16.016617  19.777662  19.504542
Cu  16.588169  17.744197  15.792167
Cu  19.412079  17.706477  19.162157
Cu  19.416681  17.969544  21.781868
Cu  17.650656  18.745839  17.892502
Cu  18.810989  19.940030  19.906803
Cu  17.725974  19.824703  22.493715
Cu  18.780843  20.041904  15.679596
Cu  20.761935  21.714124  19.306704
Cu  19.765446  21.227930  22.161952
Cu  19.420055  17.257355  16.498209
Cu  20.278867  15.290769  18.369744
Cu  21.801898  16.780664  20.509432
Cu  21.376770  18.838888  15.191456
Cu  21.918005  17.480829  17.560287
Cu  21.281222  19.668438  20.928277
Cu  21.571941  21.585696  16.830261
Cu  20.205609  19.565644  17.832783
Cu  22.794891  19.768737  18.585119
27
Step=2900 t=2900.000fs 
Cu  17.681486  15.766168  18.009164
Cu  18.723177  15.827694  20.459043
Cu  14.883522  19.257542  21.719511
Cu  16.084633  20.427761  16.840366
Cu  15.259088  17.696182  18.180336
Cu  17.118244  17.813978  20.408448
Cu  18.297875  21.521094  17.931646
Cu  17.524280  21.973819  20.561874
Cu  15.859809  20.068916  19.419773
Cu  16.806277  17.574862  15.707589
Cu  19.678928  17.703835  19.224561
Cu  19.213776  18.055561  22.045314
Cu  17.823329  18.610649  18.139961
Cu  18.751709  19.795241  20.169023
Cu  17.181525  20.033381  22.833773
Cu  18.351140  19.884768  15.422485
Cu  20.714073  21.710995  19.820336
Cu  19.962952  21.015628  22.445504
Cu  19.300264  17.407718  16.336670
Cu  20.574072  15.060792  18.123804
Cu  21.815674  16.632526  20.201922
Cu  21.406797  19.054060  15.473329
Cu  21.749321  17.333058  17.548746
Cu  21.695478  19.146741  20.645023
Cu  20.979704  21.744983  16.522013
Cu  20.174348  19.559387  17.714535
Cu  22.656545  19.590687  18.363276
27
Step=3000 t=3000.000fs 