27
Step=0 t=0.000fs 
Cu  16.032816  16.032816  16.032816
Cu  16.032816  16.032816  18.898816
Cu  16.032816  16.032816  21.764816
Cu  16.032816  18.898816  16.032816
Cu  16.032816  18.898816  18.898816
Cu  16.032816  18.898816  21.764816
Cu  16.032816  21.764816  16.032816
Cu  16.032816  21.764816  18.898816
Cu  16.032816  21.764816  21.764816
Cu  18.898816  16.032816  16.032816
Cu  18.898816  16.032816  18.898816
Cu  18.898816  16.032816  21.764816
Cu  18.898816  18.898816  16.032816
Cu  18.898816  18.898816  18.898816
Cu  18.898816  18.898816  21.764816
Cu  18.898816  21.764816  16.032816
Cu  18.898816  21.764816  18.898816
Cu  18.898816  21.764816  21.764816
Cu  21.764816  16.032816  16.032816
Cu  21.764816  16.032816  18.898816
Cu  21.764816  16.032816  21.764816
Cu  21.764816  18.898816  16.032816
Cu  21.764816  18.898816  18.898816
Cu  21.764816  18.898816  21.764816
Cu  21.764816  21.764816  16.032816
Cu  21.764816  21.764816  18.898816
Cu  21.764816  21.764816  21.764816
27
Step=100 t=100.000fs 
Cu  16.087432  16.211270  16.773553
Cu  16.613597  15.830489  19.083792
Cu  16.369395  16.671485  21.607943
Cu  15.987909  18.797639  16.620542
Cu  16.686913  19.419769  18.884263
Cu  15.892354  18.928335  21.093167
Cu  16.660501  21.657746  16.707706
Cu  16.089961  22.182488  19.288478
Cu  16.107959  21.240335  21.737070
Cu  18.743091  15.863770  16.418793
Cu  19.112822  16.821010  18.619700
Cu  18.912981  16.251200  21.044305
Cu  18.578546  18.773024  16.260160
Cu  19.024753  19.017683  19.463772
Cu  18.792482  18.837335  21.904973
Cu  19.334880  21.367879  15.977669
Cu  18.655908  21.116277  18.524573
Cu  18.696682  21.870461  21.583241
Cu  21.627702  16.594108  16.060787
Cu  21.539280  15.819265  18.623449
Cu  21.644436  16.098910  21.562030
Cu  21.622929  19.067683  16.105466
Cu  21.359551  18.506398  18.582641
Cu  21.376771  18.762316  21.185270
Cu  22.023968  21.491923  15.675514
Cu  21.264740  21.162104  19.051382
Cu  21.460482  21.907122  21.827786
27
Step=200 t=200.000fs 
Cu  15.995551  16.452770  16.989126
Cu  17.238615  16.008944  19.444246
Cu  16.997136  16.603485  22.150405
Cu  15.798812  19.029789  16.536507
Cu  17.045267  19.317566  18.690268
Cu  15.714638  18.745715  20.572299
Cu  16.853926  21.190838  16.623644
Cu  16.522649  22.171966  19.555241
Cu  16.248918  21.200165  22.086969
Cu  18.845365  15.605246  16.170277
Cu  18.995939  17.083054  18.391578
Cu  19.259761  16.870620  20.779026
Cu  18.645175  19.074763  16.992868
Cu  18.959792  19.135666  19.925660
Cu  17.902096  19.104764  22.490254
Cu  19.485109  21.099371  16.112001
Cu  19.034899  21.796751  18.403145
Cu  18.615531  21.271306  20.697696
Cu  21.145177  16.687510  16.204946
Cu  21.055175  15.419950  18.728922
Cu  21.607036  16.338266  21.152988
Cu  21.053718  19.220337  16.073706
Cu  21.363784  18.109154  18.271296
Cu  21.326169  18.946991  21.116228
Cu  22.330376  21.886094  15.766988
Cu  21.047788  20.484964  18.748969
Cu  21.179622  21.411979  21.592771
27
Step=300 t=300.000fs 
Cu  16.625611  16.790892  17.467862
Cu  16.602736  16.129464  19.994784
Cu  17.235922  16.397109  22.626698
Cu  15.371022  18.847639  15.989710
Cu  16.601303  19.299433  18.559845
Cu  15.684166  18.255587  20.907832
Cu  16.879180  21.614351  16.566257
Cu  16.510473  21.708736  19.148019
Cu  16.049191  21.307432  22.305885
Cu  18.184289  15.235764  16.024705
Cu  19.002980  17.151291  17.933823
Cu  19.631130  17.094681  21.667797
Cu  18.845792  19.435207  16.709048
Cu  19.286996  19.127022  19.440294
Cu  17.771400  19.009863  22.686127
Cu  19.632102  22.179992  15.273768
Cu  19.136728  22.763642  18.322407
Cu  18.526853  21.024646  21.043458
Cu  20.965474  16.399173  16.261732
Cu  20.284518  14.853420  18.638027
Cu  22.474354  16.174651  20.909820
Cu  21.364165  19.343348  15.830443
Cu  21.784409  17.518319  18.979479
Cu  21.490706  18.799411  21.377724
Cu  22.216212  21.971004  16.325513
Cu  21.202870  20.503439  18.259910
Cu  20.907443  21.332508  21.017058
27
Step=400 t=400.000fs 
Cu  16.511487  16.886107  17.421368
Cu  17.364182  16.298550  20.175772
Cu  17.000035  16.118943  23.128873
Cu  15.642415  18.979407  15.780859
Cu  16.967070  19.272918  18.803073
Cu  15.963662  18.721211  21.456243
Cu  17.287659  21.652818  16.514974
Cu  16.481477  21.683334  19.278762
Cu  15.566430  21.176699  21.966117
Cu  18.142386  15.088935  16.170395
Cu  18.944794  17.328081  18.104968
Cu  19.777512  16.733061  21.255391
Cu  18.819730  19.884500  16.693883
Cu  19.159028  19.163575  19.753960
Cu  18.446809  18.701922  22.351439
Cu  19.858832  22.535380  14.971315
Cu  19.201493  22.295869  18.466964
Cu  18.046844  20.848776  20.862166
Cu  20.721163  16.386908  16.400615
Cu  19.429466  14.912549  18.936840
Cu  22.966911  15.411134  20.847983
Cu  21.449655  19.221969  15.871442
Cu  21.270290  17.497002  18.913759
Cu  21.464844  19.119719  21.163719
Cu  21.912812  22.286304  16.813288
Cu  20.832765  20.306962  18.039780
Cu  21.038274  21.755393  20.124077
27
Step=500 t=500.000fs 
Cu  15.960938  16.604581  17.331999
Cu  17.475404  17.077446  20.181348
Cu  17.148836  16.408900  22.910335
Cu  16.588324  19.377724  16.251062
Cu  16.843624  19.561127  18.795508
Cu  16.579094  18.773313  21.347620
Cu  17.093108  21.999349  16.382752
Cu  16.081807  22.242668  18.946965
Cu  15.234221  21.331083  21.448336
Cu  18.393621  15.243919  16.624076
Cu  18.591779  17.417679  17.838749
Cu  20.532153  16.306869  20.821174
Cu  18.859159  19.516708  16.539061
Cu  19.130729  18.874663  19.832128
Cu  19.209395  18.251717  22.589690
Cu  19.641544  22.025372  15.499550
Cu  18.795680  21.209281  18.411083
Cu  18.281746  21.230870  21.199077
Cu  20.545072  16.596597  16.617152
Cu  19.006717  14.974592  18.927742
Cu  22.622433  15.217159  20.511882
Cu  21.308952  18.863896  15.741215
Cu  21.443801  17.293112  18.746007
Cu  21.512927  19.507350  21.003157
Cu  21.472665  22.582632  17.404663
Cu  20.907078  19.798080  18.391791
Cu  21.007218  21.981340  19.973904
27
Step=600 t=600.000fs 
Cu  15.881442  16.992984  17.781985
Cu  17.149295  16.578611  19.859773
Cu  17.502502  16.867749  22.229659
Cu  16.670226  19.212495  16.459538
Cu  16.180780  19.546964  19.258480
Cu  17.055888  19.520146  21.915423
Cu  16.831123  22.070164  16.279431
Cu  16.258046  22.459387  18.723532
Cu  15.278333  21.379340  20.808368
Cu  17.912887  15.128005  16.135653
Cu  18.471666  17.636828  17.895284
Cu  20.058288  16.582386  21.117668
Cu  19.192674  19.028122  16.413292
Cu  19.197351  18.742288  20.075914
Cu  19.640646  18.543263  22.744534
Cu  19.465801  21.750784  15.991696
Cu  18.540626  21.011833  18.359528
Cu  18.536237  21.118118  21.102401
Cu  20.501319  16.403062  16.284627
Cu  19.426302  15.093560  19.250093
Cu  22.599292  14.907104  19.806037
Cu  21.972418  18.971113  15.528525
Cu  21.697751  17.294739  18.853377
Cu  21.481684  19.354232  21.028736
Cu  20.879953  22.456342  17.813218
Cu  21.338567  19.745983  18.147209
Cu  20.546928  21.872424  20.404042
27
Step=700 t=700.000fs 
Cu  15.535411  17.269489  17.593632
Cu  16.798658  16.182479  20.118609
Cu  18.123215  17.057445  22.361245
Cu  16.984045  19.318637  16.778561
Cu  16.590831  18.840104  19.708431
Cu  16.740161  19.320527  22.415972
Cu  16.659649  21.707556  15.994509
Cu  17.020975  22.656222  18.763250
Cu  15.432688  21.277199  20.790408
Cu  17.470373  15.788802  16.418305
Cu  18.627602  17.340942  18.072077
Cu  20.155848  16.613443  21.130976
Cu  19.765124  18.975720  15.941202
Cu  18.856564  19.016959  20.219591
Cu  19.624380  19.911442  22.962690
Cu  19.376979  21.560767  15.672554
Cu  18.456262  20.304042  18.229189
Cu  18.002532  21.359564  20.752510
Cu  20.333593  16.528102  16.440715
Cu  19.852383  15.103458  18.429566
Cu  22.201567  14.769759  19.178168
Cu  22.689357  18.994828  15.681675
Cu  21.016791  17.342073  18.848439
Cu  21.498340  19.032063  20.799416
Cu  20.551783  22.511277  18.197665
Cu  20.831137  19.941774  18.093442
Cu  21.071776  21.543353  20.675228
27
Step=800 t=800.000fs 
Cu  15.056809  17.325312  17.821929
Cu  17.239300  15.967625  19.982578
Cu  18.408750  17.420052  22.731670
Cu  16.974907  18.828836  16.225746
Cu  16.531438  18.747879  19.730234
Cu  16.609578  19.541275  22.498305
Cu  16.627959  21.543136  16.136884
Cu  17.480908  22.851184  18.169435
Cu  15.545400  20.956648  20.406502
Cu  17.592642  16.410804  16.722356
Cu  18.637494  17.988988  18.645182
Cu  20.508215  16.191149  20.689446
Cu  19.630805  18.859000  15.960090
Cu  19.191574  18.753184  20.787579
Cu  19.326992  20.749860  22.736248
Cu  19.400835  21.369087  16.052264
Cu  18.347131  20.379445  18.416674
Cu  18.322851  21.422475  20.632696
Cu  20.666977  16.345436  16.043480
Cu  18.918614  14.673375  18.023980
Cu  21.998968  15.167508  18.762447
Cu  22.400948  18.857809  16.534738
Cu  21.013512  17.517865  18.373653
Cu  21.955169  18.597055  20.836140
Cu  19.889334  22.542110  18.441730
Cu  21.121936  20.032604  18.342827
Cu  20.868978  21.228324  20.563214
27
Step=900 t=900.000fs 
Cu  15.257510  17.519033  18.262543
Cu  17.544808  16.303307  20.155432
Cu  18.625219  17.512533  22.748749
Cu  16.651093  18.744676  15.903821
Cu  16.808364  18.545164  19.938904
Cu  17.138926  19.767884  22.005777
Cu  16.619143  21.204909  16.472080
Cu  16.886461  23.384961  18.076854
Cu  15.716138  21.308936  19.294971
Cu  17.794618  16.637833  16.572013
Cu  18.817874  17.789216  18.639172
Cu  19.981697  16.013766  20.337987
Cu  19.569591  18.622032  16.517119
Cu  19.468874  19.171364  20.599533
Cu  19.180470  20.698796  23.348664
Cu  19.407712  21.411136  16.644468
Cu  17.928719  19.950030  18.242378
Cu  18.099765  21.609086  20.356063
Cu  20.570937  15.917480  16.023673
Cu  18.956727  14.699512  18.180845
Cu  21.820587  14.998541  18.057846
Cu  22.355163  18.617383  16.476109
Cu  21.197073  17.554912  18.630458
Cu  22.231123  18.299321  20.514870
Cu  20.066944  22.846868  18.802011
Cu  20.727939  20.081095  18.307464
Cu  20.844552  21.058253  21.158223
27
Step=1000 t=1000.000fs 
Cu  16.124811  17.567251  18.103027
Cu  16.725559  15.817732  20.915202
Cu  18.845984  17.611438  22.148105
Cu  16.584549  18.746255  15.995308
Cu  16.758706  18.682422  20.235435
Cu  17.252878  20.520776  22.121391
Cu  16.489079  21.603523  16.119497
Cu  17.329752  23.519169  18.411881
Cu  15.412440  20.908826  18.765451
Cu  17.517287  15.994454  16.454089
Cu  18.571166  17.252589  18.455139
Cu  20.274980  16.335615  20.559921
Cu  19.550422  18.826197  16.143692
Cu  19.430314  19.120367  20.628365
Cu  19.356834  20.260137  23.547563
Cu  19.127106  21.658589  16.657967
Cu  17.940519  19.861599  18.058845
Cu  18.317908  21.496033  20.084356
Cu  20.107735  16.347188  16.147303
Cu  19.277343  14.969140  18.429238
Cu  21.901015  14.430356  17.861954
Cu  22.404523  18.403350  15.905723
Cu  21.331027  17.205062  18.028646
Cu  21.997146  18.703576  21.035886
Cu  20.045391  23.061208  19.088586
Cu  20.510702  20.093578  18.641515
Cu  21.082851  21.271600  21.723943
27
Step=1100 t=1100.000fs 
Cu  16.181838  17.371272  18.322543
Cu  16.844460  15.990752  20.738057
Cu  18.188333  17.396179  22.523654
Cu  16.885893  19.133195  15.699960
Cu  16.866506  18.739041  20.778440
Cu  17.049178  21.040421  22.507213
Cu  16.586034  21.839118  15.689627
Cu  17.753539  23.163836  18.468795
Cu  15.632878  20.066607  18.901840
Cu  17.155970  15.560010  16.359033
Cu  18.998151  17.513293  18.664002
Cu  20.576660  16.717913  20.527868
Cu  19.551819  19.185093  16.169193
Cu  19.296820  19.146230  20.434321
Cu  19.865158  19.342867  23.331337
Cu  19.131742  21.799136  16.933296
Cu  17.766426  19.753393  18.135108
Cu  18.111331  21.355366  19.946203
Cu  19.768134  16.390528  15.879046
Cu  19.189524  14.842124  18.828654
Cu  21.856146  14.486972  17.772534
Cu  21.863806  18.229087  15.652621
Cu  21.419725  17.651482  18.246811
Cu  21.509361  18.925765  21.372891
Cu  20.664382  22.888740  18.997121
Cu  20.925909  20.205189  18.260159
Cu  20.628303  21.534417  21.127698
27
Step=1200 t=1200.000fs 
Cu  16.267780  17.701570  18.229100
Cu  17.601453  16.360747  20.162573
Cu  18.014138  17.098305  22.638627
Cu  16.958956  18.763804  15.844297
Cu  16.714780  18.901411  20.954268
Cu  17.482349  20.809786  22.758746
Cu  16.966938  21.754432  16.195353
Cu  17.480016  23.377034  18.126125
Cu  15.368662  19.991815  18.895340
Cu  17.142608  15.713096  16.900957
Cu  18.900366  17.547351  18.284906
Cu  20.114843  16.557808  20.950349
Cu  19.561720  19.060245  16.230149
Cu  19.266782  18.874598  20.205421
Cu  19.856229  18.970076  22.767046
Cu  19.385393  21.721172  16.864361
Cu  18.009693  19.848997  18.280046
Cu  17.500289  21.376447  19.942138
Cu  19.551686  16.505018  16.363936
Cu  19.033616  14.905334  18.813881
Cu  21.237966  15.553282  17.734432
Cu  21.794869  17.831831  15.415172
Cu  21.755938  17.767732  18.427301
Cu  22.292555  19.186922  20.954568
Cu  20.999804  22.781444  18.502095
Cu  20.811504  20.080669  18.739347
Cu  20.197091  21.227099  21.087490
27
Step=1300 t=1300.000fs 
Cu  15.996959  18.185285  18.580688
Cu  17.498616  16.677420  19.864482
Cu  17.788846  17.001420  22.752858
Cu  17.378949  18.212582  16.091981
Cu  16.499222  19.175603  20.770515
Cu  18.112057  20.199742  22.809595
Cu  16.656101  20.813945  16.574227
Cu  17.734256  23.368193  18.072293
Cu  15.022632  20.721703  18.485058
Cu  17.183142  15.901111  17.563354
Cu  19.230499  17.411634  18.026092
Cu  20.347561  16.462892  20.688350
Cu  19.916922  19.233463  16.237688
Cu  18.939601  18.919192  20.410524
Cu  20.311257  18.641503  22.771895
Cu  19.586850  21.699654  16.645844
Cu  18.114365  19.836150  18.356049
Cu  16.958108  21.856577  20.356772
Cu  19.163017  16.305392  15.302233
Cu  19.035586  14.409560  18.620376
Cu  21.230171  15.727575  17.747736
Cu  21.995978  17.280383  15.693312
Cu  21.511066  18.026692  18.882358
Cu  22.591737  19.582266  20.559645
Cu  21.127023  22.954397  18.681766
Cu  20.338755  20.418063  18.598687
Cu  19.998748  21.245627  21.123649
27
Step=1400 t=1400.000fs 
Cu  15.619543  18.362281  18.312612
Cu  17.703030  16.672030  20.079344
Cu  18.007059  17.520769  22.358455
Cu  17.676953  18.255777  16.203936
Cu  15.927098  19.614571  20.984047
Cu  18.362415  19.869333  22.470103
Cu  16.537503  20.371471  16.195310
Cu  18.162662  22.530164  18.414093
Cu  15.030326  21.446623  18.701225
Cu  16.830889  15.815946  17.297525
Cu  19.219107  17.199792  17.917767
Cu  20.342892  16.307978  20.210001
Cu  20.294774  19.164267  16.315314
Cu  19.496979  18.707009  20.481286
Cu  21.198170  17.848716  22.633718
Cu  19.225629  21.721871  16.097178
Cu  17.798134  19.918745  18.622574
Cu  17.360359  21.879188  20.762319
Cu  19.075292  16.139949  15.021351
Cu  18.934375  14.516811  18.886775
Cu  21.151409  15.155155  17.842145
Cu  21.804949  17.148050  16.224799
Cu  21.466319  18.333417  18.728864
Cu  22.010973  20.501907  20.968608
Cu  20.892792  23.127212  19.202743
Cu  20.497534  20.580432  18.533173
Cu  19.640859  21.558560  20.802760
27
Step=1500 t=1500.000fs 
Cu  15.777913  18.482563  17.911894
Cu  17.168148  17.264553  19.557926
Cu  18.517656  17.433417  22.062003
Cu  17.675553  18.333032  16.354980
Cu  16.144727  19.204443  20.721826
Cu  18.631478  20.186473  22.508282
Cu  16.364498  20.891719  16.478473
Cu  18.199735  22.157488  18.373156
Cu  15.957141  21.495639  18.840559
Cu  16.799680  15.952773  17.135501
Cu  19.487521  17.282291  18.138275
Cu  20.424154  16.071815  20.199795
Cu  20.123398  19.023419  16.480252
Cu  19.884341  18.906037  20.122881
Cu  21.430694  17.710008  21.722868
Cu  18.746474  21.309221  15.813722
Cu  17.862995  19.352462  18.957318
Cu  16.617023  21.960487  21.313467
Cu  19.367278  16.126101  15.889570
Cu  18.221190  14.705650  19.010970
Cu  21.049521  14.758839  17.952792
Cu  21.581863  16.953003  16.505010
Cu  22.086703  18.153443  18.856628
Cu  21.768620  20.436984  21.130911
Cu  20.673174  23.531527  19.337094
Cu  20.459445  20.773448  18.281830
Cu  19.247106  21.811188  20.610043
27
Step=1600 t=1600.000fs 
Cu  15.121832  18.825943  17.869803
Cu  17.010842  17.081549  19.573512
Cu  18.824843  17.285007  21.369747
Cu  17.735791  18.633708  16.188770
Cu  16.790026  19.174892  20.962582
Cu  18.694677  19.759661  22.362287
Cu  16.062628  20.944913  16.397598
Cu  18.396577  22.705913  17.670960
Cu  15.966816  20.957723  19.626484
Cu  16.614556  16.417806  17.072118
Cu  19.312893  17.522519  18.470147
Cu  20.293806  15.581349  20.388265
Cu  20.357833  18.924371  16.561249
Cu  19.711501  19.385577  20.119459
Cu  21.816325  17.758866  21.638435
Cu  18.871457  20.792033  15.688298
Cu  18.323591  20.117888  18.082770
Cu  16.250604  21.784403  22.212016
Cu  19.152609  15.860122  16.430817
Cu  18.156610  14.723491  18.920134
Cu  20.645446  14.590921  17.959302
Cu  22.153775  16.721552  16.819704
Cu  22.095057  18.220284  19.045800
Cu  21.883991  20.549141  20.894509
Cu  20.528730  23.569168  19.107338
Cu  20.910045  20.789907  18.492491
Cu  18.585162  21.589319  20.343432
27
Step=1700 t=1700.000fs 
Cu  15.256398  19.100307  18.288386
Cu  16.697974  17.383670  19.330048
Cu  18.905584  16.929306  21.212870
Cu  17.728789  18.399493  16.059115
Cu  17.276451  19.259553  21.046826
Cu  19.584497  19.984435  22.989150
Cu  16.317802  20.953556  16.471120
Cu  18.309909  22.914506  17.256055
Cu  15.724119  21.075489  19.481218
Cu  15.888211  16.573780  16.956889
Cu  18.985838  17.377787  18.530605
Cu  20.963113  15.311960  20.492333
Cu  20.708800  18.630473  16.737156
Cu  19.599369  19.459404  20.125680
Cu  21.368451  17.694175  21.700737
Cu  19.410303  20.852280  15.326863
Cu  18.077798  20.054491  18.010625
Cu  16.543612  21.107176  22.727769
Cu  19.102162  16.299042  16.288286
Cu  18.136571  14.862746  18.703197
Cu  20.865458  14.426338  18.014551
Cu  22.165384  16.388015  17.303234
Cu  21.468264  18.288225  19.173438
Cu  21.649921  21.077749  20.787390
Cu  20.367323  23.044573  19.310147
Cu  20.934785  20.994043  17.770977
Cu  18.231140  21.825452  20.173360
27
Step=1800 t=1800.000fs 
Cu  15.550174  18.967114  17.819698
Cu  16.556691  17.260125  19.502216
Cu  18.750497  16.728155  20.853342
Cu  17.671507  18.574589  16.178091
Cu  16.976583  19.345230  20.584860
Cu  20.305259  20.434119  22.994107
Cu  16.564531  20.872054  16.475263
Cu  18.424205  22.287129  17.456382
Cu  15.905228  21.772875  19.372982
Cu  15.859407  16.461908  16.745131
Cu  19.486716  17.609167  18.545900
Cu  21.337887  15.769225  20.077074
Cu  20.289298  18.450689  16.383158
Cu  19.604337  19.573812  20.330244
Cu  20.790067  18.222565  21.935548
Cu  19.215387  20.670929  15.378864
Cu  18.107796  19.714720  18.411930
Cu  17.352117  20.675992  23.052811
Cu  19.312963  15.978542  16.165711
Cu  17.997209  15.347509  18.517021
Cu  20.327478  14.107543  17.865420
Cu  21.948100  16.496779  17.621386
Cu  21.631456  18.385651  19.409492
Cu  21.493235  20.972882  20.782257
Cu  20.293618  22.993917  19.345150
Cu  20.437978  20.722947  17.987087
Cu  18.078305  21.871858  20.476898
27
Step=1900 t=1900.000fs 
Cu  15.368323  18.966882  17.743989
Cu  16.363656  17.059923  19.367773
Cu  18.494326  16.844701  20.830862
Cu  18.023633  18.042152  16.216218
Cu  16.289850  19.602809  20.617949
Cu  20.528003  21.421483  22.830992
Cu  16.269568  21.113357  16.164752
Cu  18.472731  22.094439  18.067865
Cu  16.110620  21.742547  18.680860
Cu  16.291809  16.138736  16.681515
Cu  19.263465  17.738337  18.367830
Cu  20.972231  16.513409  19.891501
Cu  20.550559  18.732033  16.196512
Cu  19.007256  19.158295  20.777224
Cu  20.816614  17.888169  22.235049
Cu  18.633468  20.521725  15.510221
Cu  17.806384  19.634560  18.247612
Cu  18.091465  20.120627  22.989202
Cu  19.179349  15.915101  15.961623
Cu  18.041799  15.424754  18.395665
Cu  20.026827  13.967197  18.038135
Cu  21.440157  16.518370  17.155309
Cu  22.450714  18.804083  19.631274
Cu  22.176403  21.289257  20.767325
Cu  20.584914  23.197853  19.437504
Cu  20.350829  20.094018  18.674498
Cu  18.663075  21.723210  20.788766
27
Step=2000 t=2000.000fs 
Cu  14.952188  19.063206  17.485000
Cu  16.306321  17.590755  19.238136
Cu  18.035983  16.358633  21.261833
Cu  17.601387  18.188970  16.083885
Cu  16.148482  19.846618  20.743610
Cu  20.760866  22.067448  22.471236
Cu  15.770396  21.136969  15.877686
Cu  18.884904  22.186665  17.967282
Cu  15.932434  21.510150  18.716584
Cu  16.299700  15.838338  16.544283
Cu  19.044887  17.710760  18.062857
Cu  20.645177  16.718190  20.011757
Cu  20.913974  19.279852  16.499142
Cu  19.069286  18.929533  20.388505
Cu  20.912072  18.273468  22.263111
Cu  18.630468  20.671924  16.238518
Cu  17.526112  19.639326  18.479363
Cu  18.160903  19.148729  22.920881
Cu  19.008063  15.664632  15.686193
Cu  18.186372  15.392525  18.673534
Cu  20.703726  14.135001  18.325799
Cu  21.190948  16.499073  17.232003
Cu  22.691838  18.383900  19.701500
Cu  22.559300  21.058359  20.370217
Cu  20.997196  23.239350  19.717585
Cu  20.484299  20.204778  18.821038
Cu  18.850743  21.530877  20.486488
27
Step=2100 t=2100.000fs 
Cu  14.915104  18.955137  17.473294
Cu  16.839211  17.613494  18.979523
Cu  17.851445  16.374806  21.461546
Cu  16.721835  18.471960  15.826482
Cu  16.570832  19.681404  21.123942
Cu  20.574093  21.919405  21.896412
Cu  15.980663  20.946459  15.909008
Cu  18.938478  22.731801  18.342855
Cu  15.839669  21.943113  18.661334
Cu  16.360133  16.034912  17.069135
Cu  18.921397  17.918382  17.453125
Cu  20.227634  16.276206  20.301742
Cu  21.134992  19.238922  16.714705
Cu  18.887400  18.349976  19.927580
Cu  20.909115  19.331845  21.641155
Cu  18.724222  20.395988  16.074403
Cu  17.625521  20.153039  18.461946
Cu  18.363725  18.513106  22.604271
Cu  18.910714  15.675164  16.167149
Cu  18.427596  15.481461  18.784760
Cu  21.144135  14.559105  18.704170
Cu  21.261115  16.896296  17.537197
Cu  21.978751  17.942974  19.375741
Cu  23.015046  20.497534  20.206453
Cu  21.145658  23.030735  19.769331
Cu  20.429070  20.400274  19.118246
Cu  18.570471  20.934526  20.682524
27
Step=2200 t=2200.000fs 
Cu  14.938917  19.148189  18.330896
Cu  16.865205  17.601105  19.035928
Cu  17.180546  16.188559  21.010690
Cu  16.806434  18.304086  15.549896
Cu  16.222334  19.043906  20.859933
Cu  20.769892  22.107481  22.132348
Cu  16.548225  21.189614  16.369346
Cu  18.390769  22.386969  18.417994
Cu  15.873885  22.093278  18.829542
Cu  16.187488  16.188922  17.294069
Cu  18.804382  18.240885  17.211976
Cu  20.327506  16.246583  21.413657
Cu  21.459697  19.475474  16.981616
Cu  19.054039  18.202611  19.709068
Cu  20.841925  19.516378  21.284396
Cu  19.092715  20.518910  15.873576
Cu  17.503778  20.008667  18.316185
Cu  19.029243  18.579913  22.376167
Cu  18.832250  15.645160  16.245926
Cu  18.688657  15.813480  18.865489
Cu  21.305847  14.581843  18.907408
Cu  21.111873  16.685796  17.084085
Cu  21.620702  17.989369  19.253919
Cu  23.055448  20.481408  20.170427
Cu  21.664506  22.503173  19.313692
Cu  20.024848  20.627850  18.486805
Cu  18.066914  20.898416  20.942992
27
Step=2300 t=2300.000fs 
Cu  14.894202  19.620062  18.504830
Cu  16.788520  17.364991  18.611733
Cu  17.000249  16.391330  21.156134
Cu  16.944459  18.480565  16.085555
Cu  16.049711  18.908242  21.084548
Cu  20.938748  22.475927  22.054728
Cu  16.718836  21.249019  16.635725
Cu  18.230887  22.648559  18.432403
Cu  15.596972  21.770538  19.618568
Cu  15.792700  15.723661  16.579895
Cu  19.261217  18.172407  17.189529
Cu  20.455287  16.652347  21.829519
Cu  22.100281  19.482179  16.997260
Cu  19.269175  18.365691  20.064698
Cu  20.802669  19.956657  21.128365
Cu  19.429569  20.732364  16.118893
Cu  17.533310  19.738713  18.478294
Cu  18.183919  18.350317  22.406103
Cu  18.248842  15.664827  15.782124
Cu  19.167416  16.104807  18.800130
Cu  21.369977  15.057946  19.315184
Cu  21.129554  16.468562  16.443303
Cu  21.622184  17.729492  19.331115
Cu  23.102947  20.001641  19.631146
Cu  21.511733  22.159783  18.645093
Cu  19.988457  20.114932  18.700430
Cu  18.136204  20.882465  20.642717
27
Step=2400 t=2400.000fs 
Cu  14.932568  19.278287  18.071341
Cu  16.477528  17.055689  18.469520
Cu  17.416114  16.187143  20.974529
Cu  16.999772  18.637479  16.487838
Cu  16.101766  19.038902  20.341592
Cu  20.791732  22.674521  21.137876
Cu  16.471501  21.386069  16.830337
Cu  18.596882  22.256113  18.640200
Cu  16.122636  21.522064  20.330862
Cu  15.151565  15.535054  16.139369
Cu  19.729119  18.156389  17.167633
Cu  20.373013  17.101096  21.643436
Cu  21.937003  19.366507  16.796568
Cu  18.429005  18.362392  20.218513
Cu  20.871571  19.715332  21.456056
Cu  19.458930  20.804869  16.687873
Cu  17.766427  19.899738  18.745453
Cu  17.789940  18.825504  22.915926
Cu  18.367486  16.435117  15.962382
Cu  19.132538  15.989322  18.491114
Cu  21.886161  15.388725  19.737586
Cu  21.117961  16.058668  16.267782
Cu  21.200196  17.836537  19.277668
Cu  23.162876  19.650485  19.224479
Cu  21.166432  22.239068  18.199606
Cu  20.242357  19.909340  19.095322
Cu  18.574948  20.957616  20.957164
27
Step=2500 t=2500.000fs 
Cu  15.011742  19.134684  17.562375
Cu  16.762390  16.818080  18.372761
Cu  17.757292  15.807424  20.813165
Cu  17.141164  19.049718  15.918390
Cu  15.988375  18.507287  20.431804
Cu  20.703139  22.593463  20.190645
Cu  16.310468  21.816961  17.195707
Cu  18.422133  22.514930  18.966671
Cu  16.621405  21.513228  20.229759
Cu  15.268568  16.122068  16.143108
Cu  19.146034  18.436377  17.548356
Cu  19.937377  16.770030  21.752688
Cu  21.674753  19.324791  16.514038
Cu  18.759466  18.363726  19.971379
Cu  21.366238  19.327175  21.955875
Cu  19.147206  20.871795  16.470613
Cu  17.494358  19.717361  18.683019
Cu  17.844838  19.097326  22.670870
Cu  18.004465  16.353729  16.144108
Cu  19.225810  15.729332  18.818209
Cu  21.965126  15.400275  20.000348
Cu  21.106437  16.157215  16.944566
Cu  21.131529  17.729818  19.010684
Cu  22.598512  19.804551  19.383021
Cu  21.562818  22.127808  17.604253
Cu  20.268557  20.217983  19.317783
Cu  19.047824  20.960891  21.653831
27
Step=2600 t=2600.000fs 
Cu  15.195668  19.031153  17.612584
Cu  17.088748  17.253670  18.556340
Cu  17.240837  15.888518  20.976746
Cu  17.093046  19.385812  15.338883
Cu  15.969689  18.114864  20.560274
Cu  21.377399  22.565138  19.966115
Cu  16.202286  21.811239  17.426928
Cu  18.628859  22.713196  18.576057
Cu  16.466946  21.144206  20.917077
Cu  15.694127  17.157461  16.270641
Cu  18.932350  18.238860  17.191876
Cu  20.180336  16.406655  21.932298
Cu  21.055202  19.096120  17.097351
Cu  18.965683  18.128739  20.189032
Cu  21.141907  19.019588  21.518309
Cu  18.909761  21.059104  16.615782
Cu  17.302856  19.769563  18.459377
Cu  17.877902  18.413810  22.367766
Cu  18.382901  15.791043  16.268493
Cu  19.358640  15.802627  19.046104
Cu  21.661973  15.412345  20.148406
Cu  21.028556  16.624844  17.150076
Cu  21.231522  17.977205  19.505658
Cu  22.562391  20.462784  19.411109
Cu  21.743092  21.597682  16.951966
Cu  19.486725  20.360171  18.865036
Cu  19.488625  21.041628  21.347743
27
Step=2700 t=2700.000fs 
Cu  14.669811  19.465875  18.156518
Cu  16.715019  16.796108  18.510918
Cu  17.188685  16.114669  21.228926
Cu  16.793950  19.769303  15.561215
Cu  15.542507  18.559559  20.391816
Cu  21.289986  22.919936  19.442929
Cu  16.149604  21.699692  17.360529
Cu  18.897509  22.707640  18.813271
Cu  16.848262  20.305948  21.238844
Cu  16.565118  17.139441  15.891138
Cu  18.755313  18.167913  16.870500
Cu  19.890454  16.468246  22.025155
Cu  21.184322  19.134373  16.921458
Cu  18.726333  18.308926  19.932202
Cu  20.679874  19.036955  21.751087
Cu  18.961580  21.077938  16.461844
Cu  17.496401  20.008359  18.645984
Cu  18.235488  18.351900  22.491747
Cu  18.721023  15.430321  16.701759
Cu  19.164328  15.944477  19.317544
Cu  21.776591  15.302882  19.839169
Cu  21.126290  16.371494  16.995194
Cu  21.554575  17.713048  19.334573
Cu  22.709761  20.076301  19.268527
Cu  21.337131  21.868233  16.959085
Cu  20.248794  20.495408  18.987825
Cu  19.039316  21.033081  21.168268
27
Step=2800 t=2800.000fs 
Cu  14.787788  19.645711  18.027325
Cu  16.619184  16.791828  18.312959
Cu  17.250201  16.699987  21.134567
Cu  16.229814  19.908026  15.987860
Cu  15.340843  17.939901  20.236130
Cu  21.407084  23.100926  19.635965
Cu  16.242478  22.331221  17.388061
Cu  18.235170  22.444817  18.881283
Cu  16.730587  20.260102  21.171377
Cu  17.146495  16.941915  15.688378
Cu  19.011492  18.156193  17.720464
Cu  20.033652  16.382508  21.518391
Cu  21.468477  18.954489  16.069439
Cu  18.562495  18.444728  20.086595
Cu  20.846800  19.274255  21.474364
Cu  18.982743  20.712148  16.707683
Cu  17.327651  19.922964  18.718705
Cu  18.298670  18.659657  22.810138
Cu  18.408459  15.053076  17.120651
Cu  19.246433  15.946228  19.154489
Cu  21.753629  14.847703  19.594099
Cu  21.126992  16.262729  17.303350
Cu  21.010156  17.735232  19.362092
Cu  23.107220  19.619319  19.233484
Cu  21.270605  22.570223  17.004217
Cu  20.406937  20.090722  18.830340
Cu  19.415969  21.571418  21.095619
27
Step=2900 t=2900.000fs 
Cu  14.274695  19.779414  18.263100
Cu  16.730007  17.320400  18.292085
Cu  17.332086  16.365095  21.333066
Cu  16.555212  19.338477  16.000454
Cu  15.124543  18.169036  20.193029
Cu  21.286795  22.546319  19.980449
Cu  16.046556  22.446255  17.410767
Cu  18.449734  22.119411  18.886629
Cu  16.669740  20.771376  20.852803
Cu  18.097876  17.489525  15.424655
Cu  19.324972  18.064315  17.650205
Cu  20.415614  16.834520  21.659844
Cu  21.213508  19.094114  16.537132
Cu  18.797273  18.945951  20.346140
Cu  21.198766  19.491315  21.243939
Cu  18.828128  20.309739  16.535350
Cu  17.438617  19.686612  18.546274
Cu  18.849142  18.922735  23.108131
Cu  18.023741  14.603634  16.787675
Cu  18.855968  15.788369  19.376472
Cu  21.391953  14.835838  19.456334
Cu  20.889288  16.193798  16.914836
Cu  21.094655  17.728981  19.345300
Cu  22.839993  19.440700  18.997929
Cu  20.846541  22.377320  17.171288
Cu  20.346609  20.426531  18.660604
Cu  19.346015  21.178246  21.293534
27
Step=3000 t=3000.000fs 