27
Step=0 t=0.000fs 
Na  13.562816  13.562816  13.562816
Na  13.562816  13.562816  18.898816
Na  13.562816  13.562816  24.234816
Na  13.562816  18.898816  13.562816
Na  13.562816  18.898816  18.898816
Na  13.562816  18.898816  24.234816
Na  13.562816  24.234816  13.562816
Na  13.562816  24.234816  18.898816
Na  13.562816  24.234816  24.234816
Na  18.898816  13.562816  13.562816
Na  18.898816  13.562816  18.898816
Na  18.898816  13.562816  24.234816
Na  18.898816  18.898816  13.562816
Na  18.898816  18.898816  18.898816
Na  18.898816  18.898816  24.234816
Na  18.898816  24.234816  13.562816
Na  18.898816  24.234816  18.898816
Na  18.898816  24.234816  24.234816
Na  24.234816  13.562816  13.562816
Na  24.234816  13.562816  18.898816
Na  24.234816  13.562816  24.234816
Na  24.234816  18.898816  13.562816
Na  24.234816  18.898816  18.898816
Na  24.234816  18.898816  24.234816
Na  24.234816  24.234816  13.562816
Na  24.234816  24.234816  18.898816
Na  24.234816  24.234816  24.234816
27
Step=100 t=100.000fs 
Na  13.969817  13.569113  14.338604
Na  13.933492  12.953562  19.718709
Na  13.996156  14.229334  23.561095
Na  13.442860  18.708063  14.450525
Na  13.880122  19.543320  18.820753
Na  13.055365  19.036464  23.351497
Na  14.145055  24.441023  14.149014
Na  13.285161  25.067450  19.629910
Na  13.979508  23.636449  24.139333
Na  18.024083  13.060349  14.005730
Na  19.239386  14.598168  18.588962
Na  18.584661  13.643938  23.562167
Na  18.135089  18.880034  13.229224
Na  19.097423  18.846614  19.537177
Na  19.122573  18.615873  24.739270
Na  19.375510  23.972249  13.273259
Na  19.075318  23.474414  18.363623
Na  17.951515  24.715872  24.445649
Na  24.419396  14.203153  13.551958
Na  24.162949  13.028970  18.227945
Na  24.361006  13.603100  24.287868
Na  24.504727  19.185764  13.737643
Na  24.096110  18.556719  18.080225
Na  23.918001  18.441876  23.952642
Na  24.725153  23.741483  12.827198
Na  23.640357  23.783097  19.200550
Na  24.147231  24.731574  24.497494
27
Step=200 t=200.000fs 
Na  13.931324  13.818622  15.371620
Na  14.536499  12.388487  19.929468
Na  14.432454  15.260601  23.293652
Na  13.384837  18.496862  15.293482
Na  14.627784  20.273908  18.845926
Na  12.700895  19.087513  22.431590
Na  14.891758  24.416221  14.956980
Na  13.209014  25.729048  20.230733
Na  14.082039  22.783608  23.995027
Na  17.819342  12.681155  14.537899
Na  19.537484  15.597277  18.166094
Na  18.554892  13.864788  22.676469
Na  17.576144  18.793985  13.259604
Na  19.220696  19.016694  20.311766
Na  19.114604  18.436258  25.015854
Na  19.914087  23.519363  13.137330
Na  18.911521  22.544135  17.816382
Na  17.599437  25.126056  24.436209
Na  24.385571  14.945794  13.567427
Na  23.904158  12.657839  17.746907
Na  24.298249  13.652856  24.141694
Na  24.524188  19.434392  13.803306
Na  23.633795  18.105952  17.642003
Na  23.472759  18.161543  23.325154
Na  25.110071  23.337374  12.204287
Na  23.033483  23.088491  19.486777
Na  23.860936  25.049204  24.644387
27
Step=300 t=300.000fs 
Na  13.525780  14.274833  16.544815
Na  15.302238  11.822623  19.822525
Na  14.950569  16.440862  23.277958
Na  13.264369  18.328264  16.015109
Na  15.680351  21.113283  19.059950
Na  12.108134  18.984411  21.390346
Na  15.668388  24.196225  15.872092
Na  13.324014  26.176075  20.685025
Na  14.147575  21.838468  23.904960
Na  18.256386  12.389328  15.100135
Na  19.543977  16.322370  17.465579
Na  18.981154  14.168390  21.652705
Na  17.354565  18.646090  13.625217
Na  19.157124  19.404554  21.321761
Na  18.822240  18.368722  25.248788
Na  20.486875  22.907379  13.123803
Na  18.667347  21.619746  17.126727
Na  17.760394  25.497323  24.208257
Na  24.123464  15.520366  13.545227
Na  23.433166  12.436070  17.517846
Na  24.049607  13.644284  23.807311
Na  24.290377  19.731895  13.780662
Na  23.012145  17.671030  17.764938
Na  23.011139  18.109073  22.374835
Na  25.451043  23.259754  11.567932
Na  22.505674  22.231538  19.806149
Na  23.389931  25.165069  24.657372
27
Step=400 t=400.000fs 
Na  13.295863  14.557543  17.714176
Na  16.175740  11.357732  19.821742
Na  15.602310  17.287313  23.046965
Na  13.270383  18.696843  16.732350
Na  16.066131  21.642104  19.881053
Na  11.268681  18.815604  20.038198
Na  16.191678  24.210518  16.536799
Na  13.611987  26.319292  21.059306
Na  14.519932  21.118965  23.924502
Na  18.761683  12.289869  15.713657
Na  18.701269  16.822418  16.840217
Na  19.621254  14.639150  20.611348
Na  17.272520  18.391310  13.933734
Na  18.712276  19.859084  21.919630
Na  18.589828  18.322290  25.854899
Na  20.948152  22.336635  13.104453
Na  19.424973  20.575618  16.385285
Na  18.003199  25.574004  23.741214
Na  23.618114  15.693159  13.510997
Na  22.788025  12.411313  17.502462
Na  23.637205  13.648537  23.305765
Na  23.886199  20.107413  14.068366
Na  22.904418  17.487500  17.976931
Na  22.791631  17.972101  21.671849
Na  25.800647  23.431889  10.869236
Na  22.026094  21.644897  19.982459
Na  22.777832  25.054926  24.520433
27
Step=500 t=500.000fs 
Na  13.398978  14.676537  18.983482
Na  17.143349  11.035018  19.951002
Na  15.924381  17.123336  22.122887
Na  14.006369  19.585510  16.946695
Na  15.958763  22.153275  20.352162
Na  10.257232  18.715086  19.299446
Na  16.764916  24.319379  16.938654
Na  13.986908  26.188673  21.378825
Na  14.635589  20.941605  24.277865
Na  18.939701  12.373685  16.095392
Na  17.573168  16.572508  17.172259
Na  19.973637  15.262289  19.812578
Na  16.699456  18.212872  13.179119
Na  18.807120  20.192907  22.322167
Na  18.731768  18.259830  26.826305
Na  20.856859  22.369816  12.589646
Na  20.347469  19.995591  16.411401
Na  18.143654  25.302419  23.051827
Na  22.794851  15.644928  13.501942
Na  22.440719  12.527339  17.724128
Na  23.115978  13.598381  22.706671
Na  24.065786  20.233890  14.767022
Na  23.105453  17.141046  17.572895
Na  22.725229  17.755501  21.963213
Na  26.092939  23.597993  10.203822
Na  21.634266  21.825244  19.870771
Na  22.143486  24.663367  24.245850
27
Step=600 t=600.000fs 
Na  13.472150  14.634067  20.070843
Na  18.093592  10.931808  20.316702
Na  16.286397  16.637898  21.221516
Na  15.104627  20.565534  16.969832
Na  15.592455  22.282974  20.391920
Na  9.323424  18.668143  18.933460
Na  17.640168  24.390905  17.011799
Na  14.120452  26.070220  21.624044
Na  14.501239  20.972129  24.912610
Na  18.541819  12.592211  15.835915
Na  16.250799  16.396494  17.454496
Na  19.911926  15.944425  19.671831
Na  16.234054  18.151490  12.199380
Na  19.342192  20.228733  22.899964
Na  18.958534  18.213397  27.533959
Na  20.414650  22.606377  11.910380
Na  20.240952  19.560570  16.641862
Na  18.161836  24.958597  22.294531
Na  21.656191  15.556657  13.364046
Na  22.865589  12.424830  18.077473
Na  22.562958  13.250874  22.232154
Na  24.953616  20.485135  15.366860
Na  23.681775  16.620940  17.370632
Na  22.796600  18.001801  22.657154
Na  26.252670  23.662834  9.685372
Na  21.486665  22.488943  19.603428
Na  21.820695  23.970041  24.015860
27
Step=700 t=700.000fs 
Na  12.789275  14.057989  20.953898
Na  18.931638  11.089369  20.741221
Na  16.940287  17.006034  21.619889
Na  16.044826  21.226808  16.471056
Na  15.186728  21.609378  20.767218
Na  8.785552  18.638716  18.615896
Na  18.764878  24.579502  16.839745
Na  13.819389  26.198279  21.852007
Na  14.524190  20.921805  25.403573
Na  18.019846  12.949097  15.490298
Na  15.063025  16.381055  16.690067
Na  20.148512  16.626355  19.520888
Na  16.027302  18.108205  11.574931
Na  19.232390  20.070759  23.357524
Na  19.179665  18.203323  27.881643
Na  19.954114  22.640162  11.543972
Na  19.576643  19.121082  16.678554
Na  18.318754  24.840324  21.611845
Na  20.350624  15.667976  13.232026
Na  23.364624  11.980611  18.080414
Na  21.970324  12.951937  22.211734
Na  25.771498  20.948521  15.856665
Na  24.478537  16.267288  17.481938
Na  23.204027  18.311355  23.240490
Na  26.285017  23.642343  9.309141
Na  21.577263  23.062377  19.149107
Na  21.959096  23.167374  24.092284
27
Step=800 t=800.000fs 
Na  12.179601  13.552296  21.790654
Na  19.011392  11.191799  20.719226
Na  16.953279  17.132189  22.299491
Na  16.525771  21.791735  15.641639
Na  14.719238  20.560118  21.089734
Na  8.582958  18.590942  18.325393
Na  19.684679  25.117839  16.209759
Na  13.419071  26.272783  22.067046
Na  14.716522  20.824616  25.838746
Na  17.434524  13.173599  15.613492
Na  13.893019  16.553424  15.915562
Na  20.969557  16.891218  19.415213
Na  15.934710  18.144545  11.238294
Na  18.792868  20.100646  23.620080
Na  19.408877  18.209955  27.954990
Na  19.491049  22.449208  11.514354
Na  19.162441  18.922821  16.337985
Na  18.435233  24.775329  21.080816
Na  19.292142  16.180806  13.111149
Na  23.695473  11.382253  17.762074
Na  21.863487  13.389419  22.830321
Na  26.254998  21.436444  16.400303
Na  25.173573  16.251063  17.643842
Na  23.798125  18.398540  23.574096
Na  26.199239  23.555430  9.053476
Na  22.275318  22.885179  18.879748
Na  22.400881  22.533829  24.340543
27
Step=900 t=900.000fs 
Na  11.793629  13.258567  22.540973
Na  18.569413  11.323027  20.286171
Na  16.725898  16.150873  22.649025
Na  16.391395  22.549088  14.920034
Na  14.119276  19.668234  20.861618
Na  8.670738  18.510685  18.061875
Na  20.539561  25.829030  15.286666
Na  13.127139  26.094881  22.260317
Na  14.929240  20.737903  26.336042
Na  16.829581  13.326947  16.227125
Na  12.815713  16.971873  15.362006
Na  21.779677  17.024482  19.650973
Na  15.588249  18.432209  10.937178
Na  18.770192  20.684896  23.705622
Na  19.688897  18.185317  27.806523
Na  19.119814  22.065390  11.649364
Na  18.984878  18.881395  16.251358
Na  18.418451  24.438095  20.589850
Na  18.757352  16.667745  12.840087
Na  23.812110  10.909941  17.448759
Na  22.097900  14.414001  23.763367
Na  26.591218  21.847885  16.931627
Na  25.811149  16.407059  17.828516
Na  24.368020  18.193329  23.647704
Na  25.994663  23.413483  8.915071
Na  23.082418  22.055430  18.943978
Na  22.891453  22.226258  24.566197
27
Step=1000 t=1000.000fs 
Na  11.602751  13.160618  23.182637
Na  18.216943  11.684643  19.928558
Na  16.721552  14.946729  22.876233
Na  15.864571  23.327789  14.634603
Na  13.603292  18.868272  20.330980
Na  8.946626  18.428563  17.890936
Na  21.464868  26.331924  14.417896
Na  12.995306  25.636496  22.421033
Na  15.112393  20.605920  26.744879
Na  16.195815  13.819304  16.958338
Na  12.050766  17.518220  14.904326
Na  22.087087  17.167448  19.990400
Na  14.777290  19.002396  10.563358
Na  18.826022  21.128207  23.352976
Na  20.029251  18.122131  27.416837
Na  19.108617  21.557567  11.673134
Na  18.820766  19.111227  16.880166
Na  18.378352  23.829408  19.894661
Na  18.681419  16.719603  12.523502
Na  23.742719  10.688928  17.229273
Na  22.009972  15.337947  24.694419
Na  27.199099  22.164234  17.233304
Na  26.469036  16.638394  18.013680
Na  25.140853  18.013370  23.504716
Na  25.663487  23.227306  8.909209
Na  23.185349  21.031022  19.357769
Na  23.373824  22.200359  24.740203
27
Step=1100 t=1100.000fs 
Na  11.577949  13.236459  23.702432
Na  18.277662  11.949368  19.750721
Na  16.828720  14.149996  23.152076
Na  15.239842  23.966161  14.640245
Na  13.440334  18.046412  19.747670
Na  9.147614  18.392077  17.980463
Na  22.381215  26.535511  13.600486
Na  13.049772  24.882398  22.523327
Na  15.353761  20.378934  26.939651
Na  15.346046  14.935716  17.485947
Na  11.811219  18.083857  14.322161
Na  21.757920  16.669268  20.428720
Na  13.836938  19.695308  10.291159
Na  18.880599  21.103391  22.866795
Na  20.154448  18.449523  27.066181
Na  19.362442  21.081713  11.759044
Na  18.476160  19.378857  17.739339
Na  18.312739  23.172081  18.838226
Na  18.661359  16.586725  12.425844
Na  23.521402  10.731548  17.109380
Na  21.729623  15.765653  25.267717
Na  27.841035  22.442368  17.475868
Na  27.048984  16.931035  18.240947
Na  26.242747  18.017195  23.186919
Na  25.187282  23.008614  9.056964
Na  23.035608  20.484584  19.843937
Na  23.764607  22.193273  24.825804
27
Step=1200 t=1200.000fs 
Na  11.712059  13.494309  24.084134
Na  18.665986  12.164447  19.363798
Na  16.928312  13.905255  23.629592
Na  14.639710  24.331031  14.716020
Na  13.386813  17.824410  19.808124
Na  9.200514  18.386567  18.260325
Na  23.275805  26.476180  12.800384
Na  13.322051  23.794112  22.523067
Na  15.617157  20.068235  26.854521
Na  14.806526  15.853814  17.464601
Na  11.962762  18.644851  13.770567
Na  21.011814  15.551504  20.896275
Na  13.059329  20.515977  10.064431
Na  18.873295  20.719969  22.448054
Na  19.858914  19.643030  27.072573
Na  19.653263  20.855975  12.071846
Na  17.988184  18.873027  18.407303
Na  18.223886  23.108777  17.644850
Na  18.480495  16.320474  12.673228
Na  23.167047  11.037479  17.095927
Na  21.844834  15.457277  25.129194
Na  28.296512  22.632777  17.799555
Na  27.430248  17.271461  18.467441
Na  27.281961  18.041927  22.848301
Na  24.553543  22.763620  9.373000
Na  23.014055  20.488183  20.204626
Na  24.012949  22.043357  24.796289
27
Step=1300 t=1300.000fs 
Na  11.985308  13.949946  24.310244
Na  18.774078  12.313230  18.701964
Na  16.989857  14.053064  24.102587
Na  13.975519  24.413722  14.757484
Na  13.094926  18.628902  21.200653
Na  9.200338  18.415048  18.491850
Na  24.105132  26.286893  12.104719
Na  13.824978  22.397703  22.377710
Na  15.535645  19.645406  26.432444
Na  14.909482  15.691006  16.364094
Na  12.301562  19.097348  13.706395
Na  20.392541  14.871111  21.121550
Na  12.531041  21.540802  9.675316
Na  18.690979  20.233356  22.189929
Na  19.902055  20.898327  27.053285
Na  19.886266  20.857559  12.621733
Na  17.662418  17.874713  18.881076
Na  18.271312  23.292971  16.490260
Na  18.142133  16.001354  13.261712
Na  22.785739  11.579235  17.151151
Na  22.092757  15.207073  25.043479
Na  28.549952  22.727663  18.209056
Na  27.556575  17.586122  18.434779
Na  28.078304  18.152073  22.772120
Na  23.822466  22.425356  9.772303
Na  23.036303  20.390581  20.348415
Na  24.170363  21.737464  24.691717
27
Step=1400 t=1400.000fs 
Na  12.343870  14.607663  24.389201
Na  18.094598  12.240408  17.717631
Na  16.979783  14.496802  24.507553
Na  13.234123  24.267650  14.787975
Na  12.847571  18.477417  22.529525
Na  9.344195  18.452544  18.622894
Na  24.881996  26.185677  11.626912
Na  14.736777  21.782207  22.171694
Na  15.286670  18.956998  25.826977
Na  14.586972  15.322049  15.454379
Na  12.827592  19.514220  14.010292
Na  20.240252  14.878056  21.299223
Na  12.148071  22.670669  9.272651
Na  18.517251  19.795944  22.237370
Na  20.136093  22.046096  26.928142
Na  20.033535  20.740905  13.272825
Na  17.378443  16.995892  19.058974
Na  18.379540  23.264711  15.681591
Na  18.089097  15.800560  13.892098
Na  22.649242  12.332694  17.175683
Na  22.451466  15.299265  25.159956
Na  28.613345  22.747776  18.701943
Na  27.386318  17.831400  18.102533
Na  28.661257  18.369108  22.993587
Na  23.054983  21.848146  10.101456
Na  23.020292  20.043929  20.191226
Na  24.344691  21.299238  24.553735
27
Step=1500 t=1500.000fs 
Na  12.602029  14.727886  24.596810
Na  17.070392  12.128471  16.791127
Na  17.145817  14.995483  24.802321
Na  12.540579  24.088981  14.889199
Na  12.088735  17.794722  22.967039
Na  9.802933  18.492855  18.716059
Na  25.631911  26.084396  11.271190
Na  15.876183  22.312088  21.644800
Na  15.434727  18.338521  25.731896
Na  13.546451  14.874928  15.017889
Na  13.556068  19.879244  14.451119
Na  20.451172  14.968421  21.324239
Na  11.853301  23.778884  9.025882
Na  18.824302  19.238235  22.474073
Na  20.215818  23.018928  26.629835
Na  20.243909  19.938544  13.876791
Na  16.711563  16.437015  18.954016
Na  18.137066  23.470879  15.504332
Na  18.767969  15.855381  14.351168
Na  22.651780  13.377215  17.226816
Na  22.859662  15.722262  25.331682
Na  28.503023  22.707051  19.287099
Na  26.962472  17.995900  17.721631
Na  29.050846  18.635976  23.226217
Na  22.362007  21.202231  10.302565
Na  22.846633  19.487625  19.794769
Na  24.530678  20.715903  24.357462
27
Step=1600 t=1600.000fs 
Na  12.807451  13.629259  25.187999
Na  16.186046  11.932383  16.104274
Na  17.824394  14.906735  24.825792
Na  11.888431  24.090160  15.076809
Na  11.271486  18.222172  22.508362
Na  10.522120  18.547035  18.593353
Na  26.288922  25.874182  10.985350
Na  16.792494  22.823824  20.897952
Na  15.690853  18.580401  26.068916
Na  12.400843  14.593095  14.731131
Na  14.578731  19.893465  15.008711
Na  20.759569  14.954315  21.148780
Na  11.639719  24.796931  8.954928
Na  19.430946  18.678150  22.753383
Na  20.200627  23.717861  26.121780
Na  20.547482  19.121000  14.836154
Na  15.833787  16.279597  18.908051
Na  17.677821  23.718838  15.628865
Na  19.372816  15.732167  14.872367
Na  22.620093  14.631082  17.291074
Na  23.195022  16.317760  25.435862
Na  28.214271  22.578883  19.926080
Na  26.416678  18.074515  17.381479
Na  29.266525  18.870167  23.337023
Na  21.810492  20.673132  10.366464
Na  22.459557  18.906145  19.273793
Na  24.570850  20.124771  24.043293
27
Step=1700 t=1700.000fs 
Na  13.100525  12.584051  25.656931
Na  15.493531  11.806138  15.603238
Na  18.571307  14.425144  24.760195
Na  11.325360  24.039580  15.315666
Na  10.868287  18.667717  22.504504
Na  11.386506  18.667033  17.796396
Na  26.858160  25.560618  10.754240
Na  17.709186  22.959529  20.109116
Na  15.825519  19.199725  26.319653
Na  11.331127  14.579528  14.561848
Na  15.784144  19.579594  15.689336
Na  20.948933  14.604353  20.936224
Na  11.484426  25.742411  9.032628
Na  19.834286  18.677941  22.992581
Na  20.163369  24.097222  25.396062
Na  20.957765  19.406318  15.846507
Na  15.135751  16.353762  19.061293
Na  17.295123  23.823800  15.789243
Na  19.141287  14.840241  15.303396
Na  22.978161  15.543446  17.258236
Na  23.345564  16.609857  25.562689
Na  27.703345  22.361654  20.530801
Na  26.004137  18.199625  17.058082
Na  29.374705  18.988790  23.371244
Na  21.260758  20.186778  10.539465
Na  21.892836  18.824020  19.127425
Na  24.493928  19.939150  23.391025
27
Step=1800 t=1800.000fs 
Na  13.529296  11.734685  25.981840
Na  14.770836  11.773700  15.250653
Na  19.064347  13.940593  24.796444
Na  10.947876  23.817459  15.587234
Na  10.763893  19.049833  22.676152
Na  12.229471  18.970540  16.697066
Na  27.366644  25.158755  10.571288
Na  18.723433  22.647547  19.619126
Na  16.036041  19.776941  26.300668
Na  10.390047  14.724592  14.493420
Na  17.083220  19.003424  16.365524
Na  20.998343  14.083062  20.694797
Na  11.363732  26.646457  9.237045
Na  19.732514  19.030625  23.344031
Na  20.140275  24.156040  24.450193
Na  20.977830  20.312491  15.807364
Na  14.897854  16.310187  19.535707
Na  16.967678  23.988173  15.682455
Na  18.546424  14.054183  15.717880
Na  23.512983  15.519496  16.975201
Na  23.380021  16.507389  25.799677
Na  27.013241  22.226983  20.883998
Na  26.085810  18.817790  16.798541
Na  29.416426  18.914540  23.429448
Na  20.652707  19.669244  10.982828
Na  21.342085  19.312869  20.136074
Na  24.334997  20.120428  22.453371
27
Step=1900 t=1900.000fs 
Na  14.086227  11.048980  26.184743
Na  13.844692  11.805250  14.998683
Na  19.299883  13.619120  24.896780
Na  10.739779  23.536944  15.862572
Na  10.945294  19.388640  22.714283
Na  13.116243  19.362373  15.600254
Na  27.815104  24.679697  10.451755
Na  19.508122  22.501825  19.377607
Na  16.172024  20.310624  26.127929
Na  9.589303  14.944950  14.515513
Na  18.214748  18.185749  17.084208
Na  20.956813  13.809740  20.336108
Na  11.270749  27.499040  9.553152
Na  19.088312  19.164466  24.301527
Na  20.183682  23.962824  23.375223
Na  21.386599  21.392694  15.464468
Na  15.011291  16.136452  20.308991
Na  16.531620  24.084543  15.358472
Na  18.190229  13.683632  16.312622
Na  23.675938  15.272658  16.670886
Na  23.405766  16.430578  25.879509
Na  26.692870  22.665203  20.699882
Na  26.314926  19.910420  16.680107
Na  29.322243  18.702045  23.489536
Na  19.970837  19.087664  11.636403
Na  20.883536  19.152690  20.221807
Na  24.051193  19.929225  22.165004
27
Step=2000 t=2000.000fs 
Na  14.756586  10.512492  26.274370
Na  12.898126  11.979590  14.835654
Na  19.344319  13.492538  24.916702
Na  10.627731  23.280882  16.156440
Na  11.406459  19.697063  22.610887
Na  14.295808  19.544975  14.634623
Na  28.197609  24.130048  10.422591
Na  19.756421  22.926831  18.823498
Na  15.529346  21.113546  26.196613
Na  8.926510  15.275010  14.625932
Na  18.869906  17.367033  17.358891
Na  20.871011  13.804510  20.133629
Na  11.206300  28.289860  9.964271
Na  19.105011  18.728358  24.825809
Na  20.366147  23.691078  22.599559
Na  22.113546  22.470703  15.117511
Na  15.361001  16.040526  21.153728
Na  16.111146  23.937282  15.078867
Na  17.876243  13.379960  16.896376
Na  23.649095  15.335590  16.394376
Na  23.403397  16.454186  25.741078
Na  26.568658  23.528106  20.313359
Na  26.317612  20.948761  16.623821
Na  28.991920  18.482965  23.464477
Na  19.186656  18.405074  12.506991
Na  20.599189  18.014295  20.178885
Na  23.932273  19.436763  22.419085
27
Step=2100 t=2100.000fs 
Na  15.523980  10.120076  26.252242
Na  12.103256  12.303383  14.768441
Na  19.267255  13.487271  24.789846
Na  10.652402  22.935309  16.476724
Na  12.111689  19.975646  22.357269
Na  15.458748  19.459030  13.892663
Na  28.499415  23.518236  10.515542
Na  19.711476  23.011200  17.818343
Na  14.642107  22.030706  26.202466
Na  8.380342  15.744525  14.798521
Na  18.775695  16.977062  16.687820
Na  20.969835  13.497033  20.291229
Na  11.171458  29.018450  10.457054
Na  19.343082  18.137911  24.995793
Na  20.707441  23.261963  22.459282
Na  22.783196  23.392014  14.610101
Na  15.952277  16.046346  21.962112
Na  15.840690  23.745175  14.890059
Na  17.249324  12.778624  17.294186
Na  23.513064  15.722499  16.174321
Na  23.425073  16.330275  25.590897
Na  26.233210  24.436029  20.124351
Na  26.206821  21.625421  16.542892
Na  28.446473  18.298066  23.336243
Na  18.540312  17.731089  13.426979
Na  20.733069  17.431404  21.059507
Na  24.026335  19.253281  22.493141
27
Step=2200 t=2200.000fs 
Na  16.386357  9.836973  26.118751
Na  11.484611  12.756382  14.778880
Na  19.183804  13.354614  24.643028
Na  10.857344  22.417614  16.830646
Na  13.054652  20.191421  21.861007
Na  15.579027  19.606239  13.405619
Na  28.706352  22.834717  10.762145
Na  19.567358  22.615415  16.889690
Na  13.910185  22.896338  26.088308
Na  7.899733  16.382663  15.027991
Na  18.650948  16.749739  17.527372
Na  21.243639  12.735691  20.437174
Na  11.164972  29.720729  11.038484
Na  19.224846  18.014955  25.453814
Na  21.069282  22.553466  22.427128
Na  23.279289  24.348948  13.793218
Na  16.538075  16.107807  22.545296
Na  15.615889  23.752769  14.784904
Na  16.398083  12.086168  17.732876
Na  23.291395  16.388003  16.117716
Na  23.603496  15.868609  25.566100
Na  25.640626  25.327398  20.126726
Na  26.167818  21.831455  16.555414
Na  27.896776  18.073912  23.145495
Na  18.901380  16.788300  12.952410
Na  20.628154  17.354327  21.487144
Na  24.323935  19.673375  22.170690
27
Step=2300 t=2300.000fs 
Na  17.196125  9.570857  25.916756
Na  11.076710  13.291011  14.857667
Na  19.331752  13.087388  24.587928
Na  11.211532  21.749420  17.183676
Na  14.231588  20.306474  21.152325
Na  15.262616  19.689195  13.103689
Na  28.784687  22.148465  11.150644
Na  19.642101  21.803896  16.256964
Na  13.344317  23.655473  25.900204
Na  7.523990  17.140608  15.299050
Na  18.256039  16.641057  18.732451
Na  21.542076  12.061307  20.435402
Na  11.187609  30.354689  11.656023
Na  19.038051  18.385700  26.333067
Na  21.024372  21.912580  22.294807
Na  23.650244  25.260152  12.950222
Na  16.539114  16.168779  22.704827
Na  15.314231  24.060507  14.781714
Na  15.617082  11.622861  18.284136
Na  23.028606  17.255417  16.309083
Na  23.790830  15.343240  25.436428
Na  24.880060  26.028484  20.144369
Na  26.047042  21.726047  16.726815
Na  27.686082  17.635731  22.995262
Na  19.694272  15.658115  12.123566
Na  20.829386  17.416976  21.506840
Na  24.537511  20.293597  21.444112
27
Step=2400 t=2400.000fs 
Na  17.851125  9.151283  25.695321
Na  10.859879  13.920447  15.015723
Na  19.706914  13.125274  24.475882
Na  11.663300  20.948455  17.478595
Na  15.671901  20.421898  20.351024
Na  15.006842  19.479089  13.000234
Na  28.718375  21.485623  11.671382
Na  19.832920  20.806342  15.877711
Na  12.909687  24.269599  25.589231
Na  7.286550  17.973489  15.603885
Na  17.552483  16.537080  19.003129
Na  21.764316  11.678333  20.347769
Na  11.239234  30.918511  12.294104
Na  18.942904  18.818543  27.075153
Na  20.276346  21.608987  22.151439
Na  23.987972  25.979100  12.282632
Na  16.118834  16.170652  22.982299
Na  15.032776  24.501749  14.918868
Na  14.999930  11.437993  18.953358
Na  22.670437  18.152242  16.741063
Na  23.835313  14.921236  25.146245
Na  24.013013  26.452730  20.083788
Na  25.781589  21.610176  16.836522
Na  27.556427  17.043668  22.830953
Na  20.419753  14.678018  11.576932
Na  21.598717  17.364512  21.805671
Na  24.970487  20.812997  20.479111
27
Step=2500 t=2500.000fs 
Na  18.443419  8.659084  25.398529
Na  10.829722  14.707248  15.282684
Na  19.906476  13.472390  24.249512
Na  12.236786  20.002642  17.716749
Na  17.115993  20.721006  19.430823
Na  14.824310  19.144477  13.171699
Na  28.494148  20.840316  12.329051
Na  19.471564  20.215385  15.519011
Na  12.589084  24.756347  25.142141
Na  7.190830  18.849538  15.934938
Na  17.095429  16.270424  18.632996
Na  21.892712  11.589749  20.207586
Na  11.320428  31.434005  12.967117
Na  18.919216  19.147248  27.462339
Na  19.476596  21.458874  22.008569
Na  24.331411  26.504170  11.789195
Na  15.641772  16.162099  23.576715
Na  14.837212  24.818522  15.187244
Na  14.542434  11.510365  19.736582
Na  22.544149  18.386072  17.501633
Na  23.944285  14.528641  24.942989
Na  23.047922  26.575955  19.920602
Na  25.620078  21.827005  16.096418
Na  27.309074  16.494558  22.505416
Na  21.100227  13.855061  11.272770
Na  22.329396  17.145372  21.980754
Na  25.213355  21.191472  20.303965
27
Step=2600 t=2600.000fs 
Na  19.065535  8.294622  24.969456
Na  10.999318  15.639658  15.666634
Na  19.584439  13.911123  23.917213
Na  12.997954  18.969814  18.013415
Na  17.845487  21.050339  18.069947
Na  14.670080  18.751519  13.572955
Na  28.254174  20.146711  12.959748
Na  18.812446  19.907817  14.746223
Na  12.373129  25.134652  24.577029
Na  7.249855  19.737392  16.281736
Na  16.836450  15.821023  18.160394
Na  21.941952  11.773358  20.044293
Na  11.430000  31.906559  13.674903
Na  18.957011  19.347687  27.491334
Na  19.408363  21.355672  22.501579
Na  24.685527  26.864382  11.441466
Na  15.302662  16.281264  24.055963
Na  14.727842  24.895800  15.576717
Na  14.250290  11.817288  20.599727
Na  22.596616  18.110529  18.378018
Na  24.306737  13.955798  25.108122
Na  21.993503  26.369533  19.652291
Na  25.270519  22.314115  14.962108
Na  27.079304  16.078920  21.924301
Na  21.748729  13.161183  11.156735
Na  22.619126  17.146883  22.008779
Na  25.260978  21.524385  20.756940
27
Step=2700 t=2700.000fs 
Na  19.720400  8.168584  24.413184
Na  11.148082  16.396296  16.027283
Na  19.029118  14.378172  23.491375
Na  13.925114  18.252813  18.719305
Na  18.257049  21.590714  17.456747
Na  14.391080  18.344469  13.939478
Na  28.191296  19.247023  13.465364
Na  18.757122  19.353120  13.253951
Na  12.261318  25.402361  23.909311
Na  7.516964  20.600142  16.643438
Na  16.870684  15.374046  17.808177
Na  21.926528  12.226479  19.905561
Na  11.563198  32.328437  14.403680
Na  19.043655  19.387659  27.248831
Na  19.515006  21.112225  23.066818
Na  25.029104  27.098686  11.204305
Na  15.071584  16.572157  24.274229
Na  14.691602  24.724359  16.050333
Na  14.139851  12.332178  21.474029
Na  22.445854  17.961474  18.368495
Na  24.614429  13.241630  25.425431
Na  20.877809  25.814907  19.291906
Na  24.370285  22.968754  14.203997
Na  26.938571  15.759655  21.113906
Na  22.355807  12.588616  11.196461
Na  22.465650  17.200308  22.712654
Na  25.150865  21.842764  21.199776
27
Step=2800 t=2800.000fs 
Na  20.379282  8.329404  23.769756
Na  10.899272  16.794485  16.443838
Na  18.503435  14.730054  22.965749
Na  14.967596  18.126741  19.970885
Na  18.695509  21.849521  17.205836
Na  14.271961  18.156358  14.155550
Na  28.012893  18.335257  14.052970
Na  19.078380  18.733889  11.802206
Na  12.260797  25.542053  23.142310
Na  8.001017  21.401284  17.013098
Na  17.393535  14.830710  17.520519
Na  21.858893  12.900672  19.822350
Na  11.713600  32.688924  15.133305
Na  19.131995  19.178727  27.015932
Na  19.540860  20.885911  23.077287
Na  25.347440  27.287466  11.013964
Na  14.855877  17.124829  24.337885
Na  14.653609  24.376537  16.573862
Na  14.188652  12.964934  22.218796
Na  22.081662  17.932296  17.938261
Na  24.715971  12.580090  25.595279
Na  19.816557  25.068055  18.935569
Na  23.224976  23.474256  13.738318
Na  26.659752  15.508163  20.235086
Na  22.905400  12.155765  11.373716
Na  22.298471  17.301072  23.703809
Na  24.810635  22.010571  21.511888
27
Step=2900 t=2900.000fs 
Na  21.024576  8.788855  23.066785
Na  10.500072  17.063244  17.180042
Na  18.278775  15.058042  22.365967
Na  16.142551  18.368365  20.879645
Na  18.967083  21.058286  16.672434
Na  14.618228  18.225172  14.381726
Na  27.605011  17.461942  14.757007
Na  19.484137  18.153136  10.710983
Na  12.388231  25.519225  22.241456
Na  8.698215  22.159448  17.402250
Na  18.041239  14.401136  17.257517
Na  21.794471  13.662927  19.822167
Na  11.876205  32.989715  15.863576
Na  19.105878  18.754987  26.991195
Na  19.377660  20.814903  22.389247
Na  25.640972  27.447297  10.852856
Na  14.617664  17.955540  24.710841
Na  14.530888  23.864188  17.170557
Na  14.209050  13.507640  22.717000
Na  21.606898  17.963642  17.617134
Na  24.609242  12.054871  25.535383
Na  19.020438  24.789017  18.987495
Na  21.954391  23.734659  13.511890
Na  26.142966  15.375431  19.399066
Na  23.396421  11.879995  11.687035
Na  22.419187  17.254159  24.432440
Na  24.217577  21.962205  21.664330
27
Step=3000 t=3000.000fs 
Na  21.595746  9.512726  22.290960
Na  10.313145  17.368205  18.082901