27
Step=0 t=0.000fs 
Na  13.562816  13.562816  13.562816
Na  13.562816  13.562816  18.898816
Na  13.562816  13.562816  24.234816
Na  13.562816  18.898816  13.562816
Na  13.562816  18.898816  18.898816
Na  13.562816  18.898816  24.234816
Na  13.562816  24.234816  13.562816
Na  13.562816  24.234816  18.898816
Na  13.562816  24.234816  24.234816
Na  18.898816  13.562816  13.562816
Na  18.898816  13.562816  18.898816
Na  18.898816  13.562816  24.234816
Na  18.898816  18.898816  13.562816
Na  18.898816  18.898816  18.898816
Na  18.898816  18.898816  24.234816
Na  18.898816  24.234816  13.562816
Na  18.898816  24.234816  18.898816
Na  18.898816  24.234816  24.234816
Na  24.234816  13.562816  13.562816
Na  24.234816  13.562816  18.898816
Na  24.234816  13.562816  24.234816
Na  24.234816  18.898816  13.562816
Na  24.234816  18.898816  18.898816
Na  24.234816  18.898816  24.234816
Na  24.234816  24.234816  13.562816
Na  24.234816  24.234816  18.898816
Na  24.234816  24.234816  24.234816
27
Step=100 t=100.000fs 
Na  13.767785  13.606685  13.896962
Na  13.765702  13.404809  19.217694
Na  13.770047  13.852025  23.928788
Na  13.581505  18.828827  13.962211
Na  13.769879  19.136384  18.867602
Na  13.438839  18.951516  23.837343
Na  13.825128  24.268853  13.826433
Na  13.522904  24.483920  19.174636
Na  13.769387  23.970108  24.156342
Na  18.564345  13.439840  13.793054
Na  19.026358  14.044658  18.784136
Na  18.779383  13.656856  23.918233
Na  18.614161  18.890009  13.529576
Na  18.973699  18.875795  19.134389
Na  18.981965  18.794573  24.335539
Na  19.078351  24.073039  13.517430
Na  18.966352  23.858896  18.700079
Na  18.535717  24.347949  24.247820
Na  24.257987  13.846837  13.602149
Na  24.145204  13.426262  18.647657
Na  24.238327  13.621860  24.209940
Na  24.269183  19.007361  13.695447
Na  24.095237  18.769721  18.588047
Na  24.051860  18.728648  24.064358
Na  24.376448  24.004640  13.332611
Na  23.945741  24.001685  19.008588
Na  24.156531  24.376269  24.290960
27
Step=200 t=200.000fs 
Na  13.969633  13.794634  14.379382
Na  14.181035  13.495568  19.346310
Na  14.061683  14.276692  23.661256
Na  13.750812  18.782027  14.466300
Na  14.280515  19.337782  18.860197
Na  13.557875  18.979871  23.312512
Na  14.226444  24.123269  14.249576
Na  13.699493  24.525055  19.380871
Na  13.968819  23.595203  24.003684
Na  18.434750  13.532389  14.168156
Na  19.124381  14.709419  18.677767
Na  18.751876  13.924990  23.409888
Na  18.450292  18.833740  13.846734
Na  19.018638  18.902337  19.346315
Na  18.954768  18.763359  24.166861
Na  19.279505  23.729645  13.656415
Na  18.893850  23.262686  18.546254
Na  18.372140  24.232711  24.012490
Na  24.084181  14.245968  13.733754
Na  23.879768  13.487408  18.498922
Na  24.075841  13.774133  24.009062
Na  24.044504  19.088718  13.931144
Na  23.687369  18.601079  18.396924
Na  23.703625  18.648519  23.639422
Na  24.386579  23.719641  13.279499
Na  23.526440  23.562979  19.068078
Na  23.903210  24.338201  24.220251
27
Step=300 t=300.000fs 
Na  14.047542  14.116289  14.942711
Na  14.809804  13.830580  19.201570
Na  14.371133  14.790833  23.600626
Na  13.969311  18.768053  14.915945
Na  15.064348  19.512963  18.874160
Na  13.880063  18.962019  22.784006
Na  14.758137  23.771526  14.822634
Na  14.080107  24.382015  19.465148
Na  14.051575  23.158767  23.883000
Na  18.646684  13.795755  14.589032
Na  19.183461  15.338591  18.518897
Na  18.902378  14.301505  22.755632
Na  18.515864  18.692976  14.543428
Na  19.047343  19.040784  19.609820
Na  18.721034  18.872351  23.832761
Na  19.523339  23.238472  13.942094
Na  18.557705  22.678576  18.430029
Na  18.549952  23.888174  23.483927
Na  23.690576  14.696212  13.908226
Na  23.469902  13.687068  18.528547
Na  23.749435  13.981658  23.625967
Na  23.527708  19.149454  14.160099
Na  23.082404  18.351703  18.407469
Na  23.235721  18.723384  22.944309
Na  24.305432  23.490970  13.402190
Na  23.051908  22.948134  19.069739
Na  23.475159  24.099216  24.026059
27
Step=400 t=400.000fs 
Na  14.049109  14.491553  15.315499
Na  15.574599  14.383793  19.168356
Na  14.722107  15.155978  23.736627
Na  14.113545  18.813019  15.158643
Na  15.701227  19.566813  18.781785
Na  14.181627  18.924830  22.293827
Na  15.351847  23.247560  15.369869
Na  14.531665  24.165176  19.549371
Na  14.116565  22.804420  23.914391
Na  19.012759  14.023656  14.814216
Na  19.174080  15.760150  18.248378
Na  19.175637  14.694182  22.116768
Na  18.739922  18.504499  15.468049
Na  19.283014  19.224109  20.121037
Na  18.291863  19.079416  23.753978
Na  19.802712  22.671480  14.283306
Na  18.174327  22.628598  18.253805
Na  18.858371  23.357410  22.636752
Na  23.154416  15.061368  14.098521
Na  23.011597  13.828108  18.697850
Na  23.344074  14.257084  23.142108
Na  22.773895  19.280507  14.359282
Na  22.623194  18.014387  18.349078
Na  22.733956  18.949280  22.245469
Na  24.247444  23.414877  13.680102
Na  22.545965  22.303036  18.986424
Na  22.978508  23.662736  23.724534
27
Step=500 t=500.000fs 
Na  14.062388  14.728363  15.417873
Na  15.912001  14.927316  19.507117
Na  15.184824  15.194201  24.066843
Na  14.090340  18.929012  15.036769
Na  15.879129  19.308754  18.581245
Na  14.067155  18.866881  21.762851
Na  15.626053  22.786988  15.338456
Na  14.671595  24.067794  19.892693
Na  14.302260  22.627374  24.159945
Na  19.031056  13.842557  14.557923
Na  19.174395  15.919340  18.132422
Na  19.307019  15.049099  21.906951
Na  18.619626  18.653955  15.919823
Na  19.384664  19.424298  20.543894
Na  17.813931  19.160039  24.499065
Na  19.936936  22.329873  14.427544
Na  18.466814  23.117299  18.123514
Na  18.837978  22.983953  21.782650
Na  22.867811  15.271270  14.224450
Na  22.679282  13.526443  18.757672
Na  23.154363  14.647709  22.869040
Na  22.256676  19.451891  14.333004
Na  22.920150  17.685604  17.972595
Na  22.707239  19.109532  22.265816
Na  24.353811  23.509339  14.111430
Na  22.270320  21.997502  18.626022
Na  22.690208  23.151638  23.450416
27
Step=600 t=600.000fs 
Na  14.207713  14.721578  15.513812
Na  15.350935  15.102061  19.950905
Na  15.624749  15.081636  24.585183
Na  13.719603  18.964479  14.472721
Na  15.837078  19.322295  18.447540
Na  13.426244  18.782844  21.548419
Na  15.450356  22.716628  14.881338
Na  14.466353  23.962485  20.171531
Na  14.604066  22.504041  24.596641
Na  18.535387  13.423308  14.087792
Na  19.516875  15.742889  17.953173
Na  19.235712  15.367037  22.375789
Na  18.304674  19.028504  15.481146
Na  19.123615  19.160001  20.655517
Na  17.560699  19.188728  25.538779
Na  19.734716  22.754677  13.969797
Na  18.907861  24.030753  17.776841
Na  18.399596  23.119573  21.881938
Na  22.991209  15.247839  14.155286
Na  22.459511  12.676060  18.596884
Na  23.453704  15.022746  22.954925
Na  22.401666  19.333935  13.825644
Na  23.822914  17.579823  17.958676
Na  23.273364  18.933987  22.723433
Na  24.609794  23.708401  14.677856
Na  22.639839  21.869429  18.148444
Na  22.609794  22.922290  23.338014
27
Step=700 t=700.000fs 
Na  14.455415  14.650838  15.729346
Na  14.746610  14.988300  20.259527
Na  15.748701  14.945587  25.276685
Na  13.080212  18.813924  13.745224
Na  15.580058  19.729294  18.310245
Na  12.537863  18.820797  21.786374
Na  15.073946  23.104009  14.569198
Na  14.065059  23.739147  20.070796
Na  14.790862  22.361635  25.108533
Na  18.026037  13.106467  13.637959
Na  19.810251  15.640084  17.636555
Na  19.283471  15.519439  22.951718
Na  18.329844  19.053938  14.712959
Na  19.186961  19.053123  20.719682
Na  17.693665  19.222557  26.346978
Na  19.665231  23.513212  12.965907
Na  19.177723  25.103514  17.565144
Na  18.008022  23.291520  22.390769
Na  23.147165  14.825422  14.046145
Na  22.274059  11.700835  18.457754
Na  24.006160  14.808683  23.022504
Na  22.734116  19.305330  13.170063
Na  24.760851  17.491270  18.316252
Na  23.778134  18.935473  23.006200
Na  24.925372  23.978215  15.156827
Na  22.899977  21.496571  18.091016
Na  22.482261  23.068841  23.217666
27
Step=800 t=800.000fs 
Na  14.706069  14.802387  16.072235
Na  14.506027  14.919531  20.608976
Na  15.528436  14.855164  26.000774
Na  12.526902  18.623352  13.118575
Na  15.423692  20.027504  18.089493
Na  11.804587  18.975470  22.170012
Na  14.757644  23.566672  14.484478
Na  13.606421  23.523154  19.804701
Na  14.628573  22.164557  25.598088
Na  17.822519  12.916569  13.196962
Na  19.959053  15.760146  17.471559
Na  19.583590  15.521920  23.289694
Na  18.418375  18.955016  14.073999
Na  19.383208  19.305357  20.656763
Na  18.193630  19.197861  26.873592
Na  19.746834  24.176048  11.993073
Na  19.398788  25.838762  17.554120
Na  17.850497  23.360963  22.608379
Na  23.211915  14.285860  14.077491
Na  22.042261  10.925882  18.389430
Na  24.511959  14.104774  22.887349
Na  23.069426  19.467067  12.687194
Na  25.507781  17.178272  18.662022
Na  24.082390  19.159287  23.166339
Na  25.175054  24.282771  15.485946
Na  22.549325  20.979570  18.280802
Na  22.273069  23.394109  22.965978
27
Step=900 t=900.000fs 
Na  15.031956  15.251591  16.421220
Na  14.613129  15.082207  21.135653
Na  15.225451  14.917596  26.575210
Na  12.225917  18.472160  12.699618
Na  15.565161  19.898957  17.788494
Na  11.385907  19.167447  22.510163
Na  14.647429  23.897180  14.521176
Na  13.168129  23.459687  19.653533
Na  14.284898  21.830774  25.971400
Na  17.869018  12.878018  12.820253
Na  20.042646  15.991068  17.520778
Na  19.943226  15.543450  23.377683
Na  18.413693  18.902773  13.661474
Na  19.245837  19.485020  20.743452
Na  18.899319  19.166849  27.066619
Na  19.855260  24.637730  11.306876
Na  19.580890  26.105514  17.610048
Na  17.601022  23.345398  22.511010
Na  23.183102  13.877912  14.244586
Na  21.727336  10.477791  18.354110
Na  24.849706  13.407372  22.567306
Na  23.360619  19.676496  12.498532
Na  25.972583  16.773006  18.886372
Na  24.177924  19.242399  23.257622
Na  25.193513  24.456944  15.835923
Na  22.077416  20.555375  18.158573
Na  22.126937  23.767310  22.570341
27
Step=1000 t=1000.000fs 
Na  15.466909  15.763700  16.673431
Na  15.017397  15.521493  21.758598
Na  15.001134  15.200235  26.944976
Na  12.211733  18.374718  12.512291
Na  15.898751  19.717166  17.534226
Na  11.282384  19.336616  22.724811
Na  14.777542  24.033159  14.643697
Na  12.843559  23.385859  19.606813
Na  14.035756  21.339442  26.180219
Na  18.035528  13.050783  12.624495
Na  20.115541  16.169191  17.726136
Na  20.270610  15.586823  23.244562
Na  18.376999  18.908157  13.439463
Na  18.668767  19.389586  21.222024
Na  19.612676  19.182656  26.892778
Na  19.955214  24.885341  10.939394
Na  19.708233  25.911500  17.686289
Na  17.108719  23.282261  22.269291
Na  23.066611  13.680512  14.539710
Na  21.341941  10.384353  18.342146
Na  24.968898  12.834859  22.127780
Na  23.528852  19.875714  12.620589
Na  26.076951  16.443496  18.973941
Na  24.022036  19.187312  23.213994
Na  24.936226  24.441237  16.253601
Na  21.865612  20.336918  17.570199
Na  22.073448  24.044937  22.002572
27
Step=1100 t=1100.000fs 
Na  15.868054  15.846015  16.819586
Na  15.600243  16.176743  22.295573
Na  14.905555  15.710291  27.133165
Na  12.496596  18.334788  12.563572
Na  16.319518  20.122756  17.485090
Na  11.430789  19.422533  22.738190
Na  15.155160  23.953288  14.854244
Na  12.668246  23.165509  19.551229
Na  14.059147  20.736893  26.258110
Na  18.257638  13.454801  12.662138
Na  20.238378  16.171766  18.091179
Na  20.592636  15.489183  22.934209
Na  18.396049  18.954752  13.324661
Na  18.149267  19.198296  21.751898
Na  20.182137  19.251640  26.407263
Na  20.039790  24.914297  10.894555
Na  19.692963  25.314942  17.693109
Na  16.535598  23.285857  21.983739
Na  22.895551  13.730805  14.946001
Na  20.891265  10.636804  18.367970
Na  24.847144  12.376117  21.624720
Na  23.545928  20.036685  12.968186
Na  25.804561  16.282859  18.910483
Na  23.637144  19.095841  22.934198
Na  24.457268  24.250222  16.717783
Na  21.609766  20.306514  17.039150
Na  21.991635  24.047828  21.318026
27
Step=1200 t=1200.000fs 
Na  16.172814  15.692813  16.996078
Na  15.876047  16.485069  22.652695
Na  14.958510  16.284344  27.219590
Na  13.090799  18.360345  12.864869
Na  16.853147  20.767285  17.701406
Na  11.751210  19.382434  22.502605
Na  15.702368  23.759236  15.044053
Na  12.517739  22.811484  19.338884
Na  14.432628  20.221292  26.237229
Na  18.502621  14.061025  12.918787
Na  20.393838  16.175548  18.590887
Na  20.896797  15.114866  22.558906
Na  18.455121  19.027965  13.288253
Na  18.173205  19.503538  22.004560
Na  20.475664  19.360927  25.816223
Na  20.102171  24.706185  11.196481
Na  19.306169  24.493738  17.444090
Na  16.163693  23.359422  21.740546
Na  22.746603  14.033897  15.374611
Na  20.336226  11.185065  18.452967
Na  24.522780  12.025360  21.081046
Na  23.496046  20.124932  13.325183
Na  25.196857  16.353925  18.719069
Na  23.193088  19.102731  22.267650
Na  23.979003  23.935071  17.101346
Na  21.132056  20.312990  16.962228
Na  21.840826  23.626540  20.867784
27
Step=1300 t=1300.000fs 
Na  16.403661  15.745449  17.341079
Na  15.917854  16.248551  22.677520
Na  15.197155  16.386691  27.412488
Na  13.965372  18.469545  13.444108
Na  17.043082  20.618178  18.223395
Na  12.227653  19.206953  22.111917
Na  15.946847  23.580091  14.788066
Na  12.359594  22.380409  18.818920
Na  15.057548  20.357713  25.966741
Na  18.747806  14.764130  13.320268
Na  20.261231  16.507245  18.924918
Na  21.040239  14.573931  22.543354
Na  18.511246  19.203433  13.375339
Na  18.650371  20.175534  21.816178
Na  20.529230  19.450431  25.429935
Na  20.139251  24.238119  11.868695
Na  18.951040  24.067601  17.117248
Na  16.037539  23.590480  21.673269
Na  22.643327  14.483866  15.613855
Na  19.589233  11.906907  18.566144
Na  24.146270  11.786929  20.476694
Na  23.435571  20.099988  13.637326
Na  24.573142  16.701270  18.486879
Na  22.888906  19.201089  21.234234
Na  23.763903  23.563277  17.171094
Na  20.770004  19.994331  17.249761
Na  21.470949  22.965884  20.978600
27
Step=1400 t=1400.000fs 
Na  16.266265  15.994719  17.739159
Na  16.284881  15.971854  22.348194
Na  15.587040  16.111586  27.654044
Na  14.846294  18.629200  14.325226
Na  16.250717  19.806719  18.555637
Na  12.909700  18.941084  21.667705
Na  15.564412  23.224439  14.101617
Na  12.374805  21.937609  18.004272
Na  15.863856  21.006770  25.364340
Na  18.892607  15.395931  13.773288
Na  19.682741  16.685098  19.326270
Na  21.007905  14.214118  22.961945
Na  18.721720  19.650050  13.588070
Na  18.584082  20.189167  21.771613
Na  20.568266  19.354464  25.316926
Na  20.228345  23.571017  12.786113
Na  19.146674  24.213025  17.120493
Na  15.922072  24.006506  21.664141
Na  22.500452  14.835458  15.537006
Na  18.691632  12.624766  18.634212
Na  23.813272  11.684392  19.733886
Na  23.363022  19.887923  13.933692
Na  24.570484  17.098280  18.144811
Na  22.998140  19.243298  20.687849
Na  23.719685  23.159953  17.074347
Na  20.782520  19.738359  17.127531
Na  21.126434  23.092239  21.325637
27
Step=1500 t=1500.000fs 
Na  15.355617  15.798033  17.771001
Na  16.721056  15.608696  22.309172
Na  16.121618  15.924173  27.621534
Na  15.245759  18.640164  15.074984
Na  15.634090  19.761434  18.587473
Na  13.536796  18.664877  21.409771
Na  15.060675  22.914590  13.529086
Na  12.415815  21.633257  17.090219
Na  16.590684  21.597437  24.827831
Na  18.655528  15.879188  14.190581
Na  19.685057  16.662366  19.877244
Na  20.946424  14.132291  23.466700
Na  18.909827  20.015689  13.580248
Na  18.121538  19.788056  21.710907
Na  20.740682  18.996647  25.340059
Na  20.592419  23.246853  13.550222
Na  19.079713  24.273782  17.500318
Na  15.806686  24.408321  21.346385
Na  22.384327  14.933255  15.419462
Na  17.973830  12.872017  18.656841
Na  23.374352  11.842383  18.890988
Na  23.588106  19.398089  13.885186
Na  25.247942  17.241793  17.606816
Na  23.215342  19.511374  21.086743
Na  23.837452  22.834074  17.121700
Na  20.421587  19.770478  17.136449
Na  21.005106  23.918709  21.680107
27
Step=1600 t=1600.000fs 
Na  14.013961  15.132662  17.848315
Na  16.748072  15.047033  22.798503
Na  16.795264  15.911365  27.257342
Na  15.174614  18.524491  14.925849
Na  16.035510  20.755131  18.528289
Na  13.571594  18.308536  21.797394
Na  14.798626  22.840374  13.000005
Na  12.053012  21.607968  16.333563
Na  17.084798  22.190063  24.771088
Na  18.162455  15.992769  14.668682
Na  20.526706  16.437486  19.842139
Na  21.030284  14.110809  23.928218
Na  18.748577  19.979025  12.995130
Na  18.162832  19.680804  21.511183
Na  20.918752  18.521333  25.339253
Na  21.325133  23.756704  14.035064
Na  18.610782  24.144399  18.008703
Na  15.623379  24.672072  20.703725
Na  22.265087  14.934573  15.375037
Na  17.705035  12.592604  18.609220
Na  22.772960  12.221843  18.224204
Na  23.916214  18.826935  13.534492
Na  26.039738  17.422705  17.358594
Na  23.320115  19.828133  21.610111
Na  24.047273  22.519919  17.435088
Na  19.953181  19.767543  17.754887
Na  20.864073  24.540745  22.073949
27
Step=1700 t=1700.000fs 
Na  12.693463  14.676729  18.092812
Na  16.646077  14.524892  22.943461
Na  17.501722  16.104265  26.864726
Na  14.616871  18.439732  14.697902
Na  15.916485  21.506543  18.113911
Na  13.547018  18.085010  22.219433
Na  14.865991  22.962688  12.499222
Na  11.464313  21.626055  15.933722
Na  17.486613  22.732945  24.888099
Na  17.857093  15.627215  15.426071
Na  21.491997  15.872453  19.728640
Na  21.299718  13.951487  24.222524
Na  18.879338  20.085264  12.323867
Na  18.501976  19.414525  21.809121
Na  20.967311  18.212596  25.325322
Na  21.945758  24.308297  14.447848
Na  18.672424  24.180579  18.008202
Na  15.012999  24.990233  20.383370
Na  22.110223  15.312250  15.058828
Na  17.669705  12.357999  18.583138
Na  22.220441  12.326636  18.100690
Na  23.969658  18.530721  13.135322
Na  26.611143  17.620014  17.461038
Na  23.378313  20.153401  21.933189
Na  24.177857  22.044546  17.969242
Na  20.010119  19.788790  17.690647
Na  20.753399  24.832162  22.407675
27
Step=1800 t=1800.000fs 
Na  11.690400  14.459188  18.393597
Na  16.592965  14.043537  22.530665
Na  17.912984  16.410207  26.717734
Na  14.040027  18.304740  14.554352
Na  15.278514  21.311562  17.632086
Na  13.749492  18.096780  22.417951
Na  15.121805  23.150844  12.197186
Na  10.839927  21.687593  15.772744
Na  17.718335  23.032441  24.981332
Na  17.531750  15.453016  16.372325
Na  22.249946  15.956951  19.953980
Na  21.661377  13.577459  24.238169
Na  19.185086  20.153627  12.008380
Na  18.597395  18.982883  21.927164
Na  21.251647  18.300720  25.354593
Na  22.419041  24.623638  14.771358
Na  19.434769  24.586148  17.779028
Na  14.168727  25.414912  20.446205
Na  21.940134  15.794841  14.662336
Na  17.484491  12.200669  18.754352
Na  21.935177  11.805054  18.133530
Na  23.996244  18.764479  12.747943
Na  26.837281  17.755241  17.703475
Na  23.355121  20.383197  22.204325
Na  24.208588  21.565747  18.383578
Na  20.302554  19.553827  17.151359
Na  20.764248  24.898725  22.478278
27
Step=1900 t=1900.000fs 
Na  11.061975  14.457852  18.716954
Na  16.637121  13.880089  22.212740
Na  17.835281  16.613276  26.602714
Na  13.648004  17.948869  14.335178
Na  15.074866  20.962727  17.464606
Na  14.115493  18.253155  22.385800
Na  15.457638  23.276809  12.188521
Na  10.229852  21.804629  15.708377
Na  17.719554  22.931553  25.025110
Na  17.174250  15.931221  17.314651
Na  22.790337  16.425386  20.242139
Na  21.930372  13.203776  24.014994
Na  19.450810  20.167341  12.067530
Na  18.504171  18.592043  21.480161
Na  21.895797  18.572794  25.519548
Na  23.034816  24.643132  14.811868
Na  19.821236  24.717702  17.818042
Na  13.521312  25.619819  20.510035
Na  21.593047  15.919853  14.583944
Na  17.175794  11.686816  18.973512
Na  21.828764  11.238848  18.124503
Na  24.228342  19.517858  12.423157
Na  26.789262  17.745959  17.927995
Na  23.291702  20.608581  22.519308
Na  24.154359  21.327761  18.371331
Na  20.329973  19.391149  16.684490
Na  20.973895  24.829027  22.240819
27
Step=2000 t=2000.000fs 
Na  10.820957  14.660797  19.043622
Na  16.765290  14.182937  22.350460
Na  17.603068  16.816810  26.262949
Na  13.411030  17.487111  14.090563
Na  15.291851  20.727658  17.596131
Na  14.420501  18.505373  22.190417
Na  15.827703  23.282105  12.499637
Na  9.805496  21.893008  15.718765
Na  17.637115  22.446552  24.885248
Na  16.801620  16.602601  18.211053
Na  22.959050  16.786301  20.405634
Na  21.995473  13.024574  23.601246
Na  19.556889  20.187285  12.318911
Na  18.727536  18.453217  20.899475
Na  22.361229  18.546837  25.995605
Na  23.733322  24.421701  14.630983
Na  19.712521  24.446888  17.900764
Na  13.114494  25.523802  20.491094
Na  21.266095  15.705235  14.677076
Na  16.862513  10.860391  18.792559
Na  21.790830  11.024137  18.177531
Na  24.536801  20.385040  12.367220
Na  26.660228  17.579440  18.024136
Na  23.302621  21.065664  22.513064
Na  23.934855  21.339032  18.074177
Na  20.117965  19.647274  16.611909
Na  21.250972  24.666254  21.937795
27
Step=2100 t=2100.000fs 
Na  10.967811  15.059908  19.352546
Na  17.020992  14.454644  22.471948
Na  17.461192  17.158875  25.758323
Na  13.383424  17.108953  14.022364
Na  15.552742  20.868535  17.759335
Na  14.523547  18.919906  21.989486
Na  16.182822  23.187370  13.148668
Na  9.685323  21.890591  15.821178
Na  17.629386  21.700390  24.431737
Na  16.251754  16.571305  18.457405
Na  22.791617  16.911273  20.496477
Na  21.854734  13.082879  23.053970
Na  19.594867  20.177093  12.554770
Na  19.522632  18.945272  20.955547
Na  22.597027  18.296239  26.437238
Na  24.225918  24.338098  14.498552
Na  19.254183  23.908335  17.714866
Na  12.949324  25.110407  20.374124
Na  20.952287  15.441883  15.021927
Na  16.525342  10.242675  18.520376
Na  21.748257  11.201827  18.313670
Na  24.805931  20.955975  12.493300
Na  26.522763  17.370964  17.929938
Na  23.411464  21.266346  22.407254
Na  23.687276  21.402903  17.751629
Na  19.830856  20.008502  16.806126
Na  21.334553  24.686876  21.725271
27
Step=2200 t=2200.000fs 
Na  11.446867  15.634023  19.627269
Na  17.354181  14.504562  22.232077
Na  17.508348  17.557668  25.389959
Na  13.585101  16.919178  14.203625
Na  15.489125  21.203269  17.913342
Na  14.432481  19.401737  21.778150
Na  16.419984  23.076183  14.026812
Na  9.911105  21.775339  16.034805
Na  17.768082  21.236600  23.788389
Na  15.917598  16.108882  18.262842
Na  22.711998  16.683202  20.393803
Na  21.580713  13.306313  22.576170
Na  19.749040  20.029292  12.676399
Na  19.901698  19.721587  21.304680
Na  22.638110  17.989457  26.560014
Na  24.389306  24.868776  14.642316
Na  18.702126  23.774985  17.530920
Na  13.037129  24.389254  20.162802
Na  20.572957  15.396150  15.685175
Na  16.233717  9.988971  18.309508
Na  21.622816  11.691534  18.464381
Na  25.010090  20.820761  12.532544
Na  26.277392  17.211042  17.674656
Na  23.781263  21.033244  22.457336
Na  23.568217  21.348456  17.612970
Na  19.572039  19.655192  16.969402
Na  21.086542  24.942366  21.457678
27
Step=2300 t=2300.000fs 
Na  12.040784  16.324003  19.874190
Na  17.528667  14.585795  21.664272
Na  17.663800  17.605220  25.249217
Na  13.962022  16.994599  14.527479
Na  15.137979  20.952760  18.032704
Na  14.166732  19.593635  21.574685
Na  16.378206  22.925345  14.506712
Na  10.493916  21.520775  16.364599
Na  17.639710  21.920762  23.533553
Na  16.062065  15.752067  17.970500
Na  22.592219  16.552022  20.064003
Na  21.368367  13.481261  22.630389
Na  20.015586  19.788942  12.751519
Na  20.157414  20.039041  20.992963
Na  22.503197  17.664602  26.313909
Na  24.279434  25.603240  14.964250
Na  18.652684  24.180931  17.719938
Na  13.241500  23.671085  20.006350
Na  20.152290  15.453105  16.380020
Na  16.050270  10.120912  18.169557
Na  21.399002  12.193694  18.452507
Na  25.084846  20.322080  12.667104
Na  25.908272  17.109250  17.266550
Na  24.407052  20.744789  22.600333
Na  23.392237  21.246992  17.596077
Na  19.243834  18.848189  17.252038
Na  20.745940  25.072930  21.142608
27
Step=2400 t=2400.000fs 
Na  12.441116  16.790574  19.924167
Na  17.464501  14.892232  21.156652
Na  17.819386  17.556382  24.943027
Na  14.362909  17.387598  14.698482
Na  15.255588  20.002599  17.729786
Na  14.191482  19.487400  22.043573
Na  16.174985  22.629431  14.415630
Na  11.252848  21.093331  16.706509
Na  17.247169  23.077328  23.460844
Na  16.214202  15.384974  17.703621
Na  22.478291  16.707657  19.878017
Na  21.380932  13.554028  23.300889
Na  20.240797  19.528431  13.052784
Na  20.300770  20.138849  20.742537
Na  22.286483  17.361363  25.732516
Na  23.945573  26.130356  15.405415
Na  18.762291  24.422992  17.877474
Na  13.366631  23.592968  20.129448
Na  19.964898  15.184442  16.297513
Na  16.002177  10.630501  18.091400
Na  21.219086  12.209105  18.433000
Na  25.030859  19.791284  13.017602
Na  25.475492  17.024906  16.701491
Na  24.999250  20.439895  22.649713
Na  23.030102  21.232270  17.528150
Na  18.618982  18.925226  17.479913
Na  20.741224  25.091902  21.167875
27
Step=2500 t=2500.000fs 
Na  12.493593  16.718045  19.659915
Na  17.607472  15.354619  21.168480
Na  17.884083  17.688315  24.429073
Na  14.631968  17.764851  14.146021
Na  15.160747  19.458054  18.062563
Na  14.741219  19.594616  23.004243
Na  16.031581  22.310890  14.137092
Na  11.738624  20.646393  16.927083
Na  16.858810  23.999839  23.304667
Na  15.908489  14.838912  17.180683
Na  22.313091  16.762877  19.952857
Na  21.378305  13.470647  23.916356
Na  20.281862  19.261869  13.602487
Na  20.040050  20.455934  21.359910
Na  22.208072  17.337273  25.003029
Na  23.413047  26.366566  15.971084
Na  18.533291  24.241593  17.570880
Na  13.673857  23.790774  20.240674
Na  20.129963  15.139598  15.362357
Na  16.059075  11.240426  18.086601
Na  21.175501  11.780217  18.769627
Na  24.908762  19.451931  13.331338
Na  24.967285  16.772819  16.233565
Na  25.370816  20.124729  22.474155
Na  22.627972  21.356770  17.336789
Na  18.845847  19.274267  17.414880
Na  21.284644  25.065202  21.621618
27
Step=2600 t=2600.000fs 
Na  12.328644  16.267000  19.609068
Na  17.861769  15.732880  20.819352
Na  18.172512  17.798902  24.417120
Na  14.949061  17.955129  13.120441
Na  15.483371  19.360088  19.198788
Na  14.930687  20.012519  23.622993
Na  15.972828  22.029818  13.906435
Na  11.617053  20.478546  16.895404
Na  16.731944  24.730024  23.205172
Na  15.654308  14.993419  16.329285
Na  21.970138  16.711448  20.022884
Na  21.204835  13.032165  24.207787
Na  20.140080  19.200359  13.740224
Na  19.594093  20.932485  22.123254
Na  22.406550  17.802259  24.348720
Na  22.721378  26.338751  16.643379
Na  18.208723  23.855827  17.401103
Na  14.023887  23.866859  20.037749
Na  20.331654  15.045137  14.472107
Na  16.237195  11.216848  18.385171
Na  21.103218  11.564050  19.222750
Na  24.788573  19.588559  13.272140
Na  24.348167  16.112842  16.283946
Na  25.501632  19.874200  22.000090
Na  22.532814  21.647924  17.331032
Na  19.442070  19.229974  17.674449
Na  22.010841  24.890011  21.977180
27
Step=2700 t=2700.000fs 
Na  12.219760  15.672006  19.721362
Na  17.838269  15.670487  20.104999
Na  18.489559  17.483352  24.945741
Na  15.300331  17.978469  12.075263
Na  16.102096  19.488872  20.183999
Na  14.564059  20.709459  24.062941
Na  15.970859  21.926400  13.919122
Na  11.547032  20.354822  16.741024
Na  16.960606  25.416906  23.227705
Na  15.647928  15.619578  15.557643
Na  21.845834  16.554326  20.112520
Na  20.899054  12.681097  24.294977
Na  19.848406  19.476488  13.421003
Na  19.266282  21.602307  22.376879
Na  22.777145  18.318200  23.954521
Na  21.913246  26.218637  17.370608
Na  17.984060  23.389546  17.564296
Na  14.216110  23.747405  19.501534
Na  20.263181  14.635194  13.874669
Na  16.482985  11.059715  18.910310
Na  21.041681  11.712939  19.581642
Na  24.658144  19.915483  13.188803
Na  23.786543  15.412485  16.594578
Na  25.526929  19.815929  21.104468
Na  22.912359  21.965274  17.596908
Na  19.487640  18.898431  18.140324
Na  22.717929  24.544214  22.140186
27
Step=2800 t=2800.000fs 
Na  12.453581  15.232108  19.814913
Na  17.410151  15.101427  19.595728
Na  18.569085  17.045488  25.300447
Na  15.616016  17.941100  10.821237
Na  16.154896  19.576638  20.844212
Na  14.109732  21.442728  24.553570
Na  15.834335  21.962106  14.184786
Na  11.856662  20.075332  16.630224
Na  17.289342  26.110874  23.164330
Na  15.819875  16.312139  15.365648
Na  22.116026  16.281621  20.603111
Na  20.504616  12.614857  24.264320
Na  19.638117  19.772567  13.309330
Na  19.234479  22.075722  22.399137
Na  23.040889  18.885230  23.884241
Na  20.973196  26.210066  18.122210
Na  18.196402  22.841749  17.881437
Na  14.141964  23.580528  19.017421
Na  19.937320  14.253630  13.484992
Na  16.597096  11.090747  19.389002
Na  21.121828  12.036190  19.729285
Na  24.429740  20.173465  13.335446
Na  23.395172  14.909194  16.775414
Na  25.638915  19.836593  19.872827
Na  23.193627  21.914526  17.857135
Na  19.594342  18.921687  17.838562
Na  23.400621  24.069714  22.229059
27
Step=2900 t=2900.000fs 
Na  12.908020  15.008012  19.859847
Na  17.200911  15.066943  19.276311
Na  18.510238  16.806800  25.244722
Na  15.970730  17.914757  9.643226
Na  15.958774  19.237986  21.239766
Na  13.792433  22.186078  24.940143
Na  15.550095  21.988003  14.510576
Na  12.417751  19.549061  16.613332
Na  17.595863  26.727171  22.916057
Na  16.029353  17.168654  15.464102
Na  22.183186  16.276272  21.308597
Na  20.037891  12.703797  24.185810
Na  19.578541  19.928921  13.322742
Na  19.474953  22.224671  22.439652
Na  23.162783  19.634642  23.964130
Na  20.040387  26.300928  18.952312
Na  18.566971  22.333530  18.165876
Na  13.942242  23.502134  18.778806
Na  19.481204  14.076847  13.317497
Na  16.501286  10.851778  19.807513
Na  21.283700  12.170068  19.650148
Na  24.119231  20.293311  13.714136
Na  23.086148  14.755091  16.632788
Na  26.093406  19.365909  18.854401
Na  22.831450  22.062989  17.738159
Na  19.894939  18.558144  17.436955
Na  24.055539  23.575530  22.290422
27
Step=3000 t=3000.000fs 