27
Step=0 t=0.000fs 
Na  13.562816  13.562816  13.562816
Na  13.562816  13.562816  18.898816
Na  13.562816  13.562816  24.234816
Na  13.562816  18.898816  13.562816
Na  13.562816  18.898816  18.898816
Na  13.562816  18.898816  24.234816
Na  13.562816  24.234816  13.562816
Na  13.562816  24.234816  18.898816
Na  13.562816  24.234816  24.234816
Na  18.898816  13.562816  13.562816
Na  18.898816  13.562816  18.898816
Na  18.898816  13.562816  24.234816
Na  18.898816  18.898816  13.562816
Na  18.898816  18.898816  18.898816
Na  18.898816  18.898816  24.234816
Na  18.898816  24.234816  13.562816
Na  18.898816  24.234816  18.898816
Na  18.898816  24.234816  24.234816
Na  24.234816  13.562816  13.562816
Na  24.234816  13.562816  18.898816
Na  24.234816  13.562816  24.234816
Na  24.234816  18.898816  13.562816
Na  24.234816  18.898816  18.898816
Na  24.234816  18.898816  24.234816
Na  24.234816  24.234816  13.562816
Na  24.234816  24.234816  18.898816
Na  24.234816  24.234816  24.234816
27
Step=100 t=100.000fs 
Na  13.764617  13.605890  13.891671
Na  13.762395  13.407058  19.212919
Na  13.766771  13.847440  23.933494
Na  13.581091  18.829891  13.955942
Na  13.766436  19.132738  18.868064
Na  13.440562  18.950720  23.843598
Na  13.820961  24.268469  13.822227
Na  13.523348  24.480233  19.170424
Na  13.766198  23.974293  24.157622
Na  18.569356  13.441569  13.789373
Na  19.024410  14.037048  18.785898
Na  18.781160  13.655260  23.923284
Na  18.618474  18.890181  13.529816
Na  18.972565  18.876116  19.130766
Na  18.980763  18.796132  24.334201
Na  19.075558  24.075687  13.517985
Na  18.965414  23.864896  18.703117
Na  18.541174  24.346382  24.247813
Na  24.257784  13.842349  13.601466
Na  24.146732  13.428211  18.651461
Na  24.238406  13.620872  24.210465
Na  24.268854  19.005706  13.693311
Na  24.097612  18.771746  18.592761
Na  24.054822  18.731211  24.067195
Na  24.374366  24.008248  13.336030
Na  23.950316  24.005456  19.006931
Na  24.157881  24.374223  24.290192
27
Step=200 t=200.000fs 
Na  13.944421  13.776437  14.319429
Na  14.134572  13.498748  19.320927
Na  14.026516  14.223707  23.697262
Na  13.737387  18.790167  14.403034
Na  14.225785  19.306324  18.862069
Na  13.556188  18.974936  23.377894
Na  14.177747  24.133478  14.198688
Na  13.687592  24.506059  19.348469
Na  13.943353  23.642107  24.019590
Na  18.461721  13.532949  14.124517
Na  19.108826  14.628988  18.694220
Na  18.759613  13.898287  23.470371
Na  18.479328  18.839390  13.822702
Na  19.010883  18.899697  19.313624
Na  18.953622  18.771301  24.173487
Na  19.251735  23.767122  13.648435
Na  18.898234  23.332284  18.570942
Na  18.403381  24.234664  24.031137
Na  24.097271  14.196558  13.721623
Na  23.906583  13.491394  18.524993
Na  24.089044  13.759026  24.027182
Na  24.060966  19.075757  13.906236
Na  23.728783  18.623379  18.428995
Na  23.742275  18.664344  23.685160
Na  24.376754  23.755284  13.298147
Na  23.576591  23.612824  19.056473
Na  23.928855  24.332816  24.222419
27
Step=300 t=300.000fs 
Na  14.001620  14.028879  14.737251
Na  14.614458  13.792310  19.183706
Na  14.257280  14.603410  23.662663
Na  13.922897  18.787828  14.732318
Na  14.834428  19.415861  18.876029
Na  13.837103  18.958266  22.990030
Na  14.576149  23.849563  14.629556
Na  13.997078  24.360220  19.391199
Na  14.000172  23.321659  23.922572
Na  18.651736  13.764081  14.442886
Na  19.144318  15.105178  18.590881
Na  18.883790  14.197070  22.977602
Na  18.554030  18.729415  14.388494
Na  19.023087  19.004979  19.480356
Na  18.765786  18.865677  23.881491
Na  19.425941  23.388621  13.886173
Na  18.631189  22.879773  18.505948
Na  18.568001  23.942379  23.607782
Na  23.780480  14.531517  13.862599
Na  23.587149  13.672499  18.570251
Na  23.827504  13.922927  23.723260
Na  23.643681  19.111198  14.086392
Na  23.252184  18.439701  18.462255
Na  23.381023  18.738375  23.147328
Na  24.292824  23.588135  13.425050
Na  23.219036  23.141984  19.043448
Na  23.595082  24.126522  24.060507
27
Step=400 t=400.000fs 
Na  14.016372  14.288008  14.963331
Na  15.112968  14.232366  19.115593
Na  14.468361  14.829410  23.755568
Na  14.064442  18.826488  14.863771
Na  15.315585  19.443313  18.822391
Na  14.116380  18.933040  22.720856
Na  14.971294  23.473620  15.004096
Na  14.319471  24.148215  19.405878
Na  14.035064  23.111644  23.927026
Na  18.935018  13.986458  14.598672
Na  19.147693  15.373591  18.435934
Na  19.075042  14.482853  22.557467
Na  18.745492  18.588152  15.092127
Na  19.155307  19.115519  19.741061
Na  18.480943  19.024713  23.719352
Na  19.594418  23.003794  14.149557
Na  18.311458  22.804392  18.433196
Na  18.816485  23.542622  23.022784
Na  23.401693  14.762817  14.007470
Na  23.277280  13.824985  18.717776
Na  23.542364  14.112539  23.385964
Na  23.106695  19.176564  14.230623
Na  22.892771  18.220143  18.480971
Na  23.015182  18.914804  22.639272
Na  24.213570  23.549016  13.666386
Na  22.879000  22.694720  18.972054
Na  23.257679  23.804241  23.838848
27
Step=500 t=500.000fs 
Na  14.075266  14.471452  14.971597
Na  15.423569  14.744203  19.298162
Na  14.718758  14.825609  23.927737
Na  14.158343  18.884780  14.767631
Na  15.480590  19.325814  18.662956
Na  14.187950  18.924378  22.466231
Na  15.283689  23.110462  15.151755
Na  14.403693  23.993389  19.583566
Na  14.155890  23.047130  24.043834
Na  19.003787  14.023408  14.453076
Na  19.171195  15.509946  18.285410
Na  19.166665  14.759780  22.328040
Na  18.749592  18.534381  15.697080
Na  19.383226  19.301780  20.087222
Na  18.222012  19.083360  24.015387
Na  19.737724  22.659822  14.327536
Na  18.286471  23.036279  18.301068
Na  18.873845  23.186919  22.384094
Na  23.164642  14.893196  14.158112
Na  23.071185  13.753616  18.814464
Na  23.369228  14.370930  23.163466
Na  22.650279  19.323822  14.278883
Na  22.941432  17.964112  18.232443
Na  22.735314  19.088794  22.451553
Na  24.223572  23.621574  14.004039
Na  22.572582  22.384718  18.797715
Na  23.057526  23.444372  23.614968
27
Step=600 t=600.000fs 
Na  14.220318  14.524109  14.967118
Na  15.311940  15.160586  19.576156
Na  14.992135  14.700914  24.210333
Na  14.162731  18.884160  14.388460
Na  15.506831  19.288262  18.519487
Na  13.991754  18.913613  22.220128
Na  15.394646  22.924110  15.054918
Na  14.207416  23.852906  19.833418
Na  14.401386  23.051129  24.311772
Na  18.733720  13.912446  14.067091
Na  19.336733  15.473476  18.185892
Na  19.108595  15.051390  22.348509
Na  18.501617  18.672058  15.901069
Na  19.358948  19.390937  20.280994
Na  18.046818  19.011343  24.742667
Na  19.779614  22.504036  14.223821
Na  18.475457  23.402831  18.063707
Na  18.667651  23.058701  22.074559
Na  23.202487  14.980519  14.283262
Na  22.985059  13.315282  18.786967
Na  23.412491  14.715004  23.164145
Na  22.456375  19.423608  14.047854
Na  23.387771  17.778490  18.007389
Na  22.735954  19.042813  22.602603
Na  24.351814  23.781666  14.434188
Na  22.518565  22.243014  18.519952
Na  23.019198  23.210621  23.451566
27
Step=700 t=700.000fs 
Na  14.363249  14.474036  15.124765
Na  15.024340  15.297947  19.733804
Na  15.175825  14.599586  24.588382
Na  14.061038  18.794541  13.827948
Na  15.359002  19.594665  18.383231
Na  13.701801  18.937015  22.225523
Na  15.260356  22.994345  14.905411
Na  13.963064  23.647261  19.909789
Na  14.702847  23.009315  24.718152
Na  18.469134  13.885865  13.658506
Na  19.518125  15.305015  18.033027
Na  19.062054  15.328182  22.488066
Na  18.447414  18.789878  15.676832
Na  19.183919  19.220812  20.291297
Na  17.971473  18.983544  25.409457
Na  19.707262  22.662731  13.742833
Na  18.580390  23.901747  17.863060
Na  18.361269  23.098717  22.251460
Na  23.306442  14.965762  14.338050
Na  22.977064  12.673759  18.762595
Na  23.615564  14.922933  23.256694
Na  22.506611  19.301423  13.650421
Na  23.866631  17.750566  18.101004
Na  22.856801  18.869928  22.788643
Na  24.535638  23.969289  14.846224
Na  22.678761  22.064662  18.380648
Na  23.011950  23.224502  23.312204
27
Step=800 t=800.000fs 
Na  14.415856  14.430270  15.476394
Na  14.890257  15.294475  19.787613
Na  15.235842  14.586589  24.966637
Na  13.994609  18.678301  13.268846
Na  15.155365  19.920021  18.142919
Na  13.508569  18.992667  22.490988
Na  14.991558  23.195096  14.803503
Na  13.756456  23.510806  19.913702
Na  14.871807  22.897275  25.202801
Na  18.470935  14.024459  13.276371
Na  19.575769  15.181960  17.849807
Na  19.116818  15.505970  22.569270
Na  18.607717  18.804282  15.369875
Na  19.045758  19.154879  20.205540
Na  17.997280  19.038848  25.771791
Na  19.645504  22.959890  13.138285
Na  18.685012  24.324818  17.851004
Na  18.232300  23.058217  22.411969
Na  23.332249  14.800610  14.403223
Na  22.989652  12.107694  18.819574
Na  23.882309  14.717738  23.283375
Na  22.660001  19.171820  13.327028
Na  24.166691  17.676193  18.364558
Na  22.805203  18.963739  22.862305
Na  24.676863  24.120592  15.120404
Na  22.623747  21.754839  18.470467
Na  22.933896  23.395979  23.119778
27
Step=900 t=900.000fs 
Na  14.486557  14.472101  15.814694
Na  15.002447  15.394133  19.990884
Na  15.246821  14.691647  25.260902
Na  14.102994  18.569477  12.820441
Na  15.077090  19.864610  17.818284
Na  13.550245  19.046081  22.775491
Na  14.775459  23.414495  14.735864
Na  13.612443  23.572148  20.043528
Na  14.866630  22.759890  25.710908
Na  18.611621  14.334341  12.912943
Na  19.560132  15.132842  17.757693
Na  19.248572  15.543607  22.562183
Na  18.755122  18.881614  15.194005
Na  18.824002  19.237155  19.998262
Na  18.133506  19.109715  25.838014
Na  19.600055  23.209699  12.682051
Na  18.794268  24.519919  17.880106
Na  18.240508  22.880746  22.355926
Na  23.297162  14.558724  14.571883
Na  22.941127  11.738206  18.928809
Na  24.107473  14.346596  23.178364
Na  22.852084  19.184777  13.169725
Na  24.277655  17.374836  18.615733
Na  22.568977  19.124833  22.927688
Na  24.673732  24.171142  15.327962
Na  22.261801  21.431330  18.529553
Na  22.799544  23.703360  22.866129
27
Step=1000 t=1000.000fs 
Na  14.684077  14.629395  15.962801
Na  15.308962  15.618724  20.422248
Na  15.290998  14.917697  25.435039
Na  14.428904  18.489253  12.536949
Na  14.972942  19.579292  17.507413
Na  13.841431  19.130534  22.913066
Na  14.715280  23.568140  14.725590
Na  13.640768  23.647431  20.257184
Na  14.818582  22.649492  26.129657
Na  18.732640  14.806414  12.633462
Na  19.507774  15.158498  17.768222
Na  19.436647  15.479439  22.481037
Na  18.850898  19.078445  15.133608
Na  18.458306  19.171480  19.825286
Na  18.349569  19.139652  25.660540
Na  19.547093  23.316813  12.492190
Na  18.827735  24.494703  17.831663
Na  18.138395  22.652322  22.246875
Na  23.234293  14.369296  14.813150
Na  22.778523  11.576004  19.045679
Na  24.210422  14.093099  22.970544
Na  23.048419  19.277394  13.216529
Na  24.180808  16.967391  18.818055
Na  22.256362  19.168479  23.010038
Na  24.460640  24.072855  15.556461
Na  21.882701  21.128220  18.343696
Na  22.664856  24.087563  22.531044
27
Step=1100 t=1100.000fs 
Na  15.019009  14.870547  16.025961
Na  15.580930  15.728293  20.791095
Na  15.417238  15.218238  25.524945
Na  14.917930  18.483816  12.399263
Na  14.661268  19.364697  17.261969
Na  14.238515  19.327477  22.881087
Na  14.823051  23.574176  14.817695
Na  13.863510  23.580430  20.404346
Na  14.821033  22.564551  26.401514
Na  18.827867  15.382342  12.499955
Na  19.433332  15.245230  17.750813
Na  19.698111  15.293683  22.407983
Na  18.885390  19.321300  15.130991
Na  18.134380  18.966586  19.833748
Na  18.504294  19.111910  25.401054
Na  19.491734  23.261879  12.561384
Na  18.750980  24.308294  17.715173
Na  17.945374  22.503278  22.198825
Na  23.141245  14.305376  15.014839
Na  22.471947  11.556902  19.129582
Na  24.211607  14.023739  22.796327
Na  23.200039  19.339670  13.451193
Na  23.883777  16.712799  18.975193
Na  22.063876  19.218283  22.934429
Na  24.066352  23.874423  15.808412
Na  21.718155  20.765361  18.086673
Na  22.497081  24.364746  22.063579
27
Step=1200 t=1200.000fs 
Na  15.406456  15.067190  16.064700
Na  15.596221  15.485013  20.912747
Na  15.609068  15.525401  25.608620
Na  15.409166  18.626368  12.324222
Na  14.257948  19.340778  17.202150
Na  14.483759  19.572997  22.737763
Na  15.016266  23.421696  14.982715
Na  14.121587  23.434962  20.347895
Na  14.902751  22.481053  26.538617
Na  19.017366  15.924347  12.497881
Na  19.368592  15.376995  17.632113
Na  19.947402  15.019625  22.393400
Na  18.728509  19.511491  15.240050
Na  18.055474  18.940616  19.851110
Na  18.534679  19.027548  25.249396
Na  19.465910  23.103214  12.760350
Na  18.639429  23.977406  17.651411
Na  17.955119  22.540307  22.199492
Na  23.024455  14.360462  15.078649
Na  22.014288  11.599142  19.167276
Na  24.247222  14.073814  22.785845
Na  23.285346  19.282136  13.772214
Na  23.529082  16.710975  19.053715
Na  22.120137  19.374065  22.597384
Na  23.588238  23.714624  16.055933
Na  21.696692  20.353568  18.111640
Na  22.246861  24.422231  21.450737
27
Step=1300 t=1300.000fs 
Na  15.636878  15.179096  15.992338
Na  15.466690  15.070896  20.827963
Na  15.770874  15.752189  25.693122
Na  15.660296  18.953242  12.243325
Na  13.910657  19.380376  17.391120
Na  14.462322  19.599158  22.533721
Na  15.131405  23.193558  15.105835
Na  14.273882  23.371168  20.030474
Na  15.061704  22.382384  26.548148
Na  19.415402  16.284784  12.546662
Na  19.398230  15.555642  17.554205
Na  19.928788  14.889443  22.400020
Na  18.434681  19.602667  15.583855
Na  18.008296  18.997361  19.855681
Na  18.663844  18.961398  25.138034
Na  19.527650  22.930312  12.900139
Na  18.590950  23.583599  17.750087
Na  18.268645  22.748314  22.322120
Na  22.948603  14.448644  15.013321
Na  21.471387  11.681112  19.166092
Na  24.440059  14.177917  22.904849
Na  23.270075  19.120916  14.086116
Na  23.401414  16.657449  19.050539
Na  22.283945  19.585821  22.323677
Na  23.129498  23.682358  16.254802
Na  21.703922  20.161140  18.279819
Na  22.007928  24.317082  20.771961
27
Step=1400 t=1400.000fs 
Na  15.610557  15.283301  15.742436
Na  15.352239  14.733965  20.623736
Na  15.813427  15.853703  25.711380
Na  15.688390  19.334119  12.147294
Na  13.635194  19.245894  17.684730
Na  14.302226  19.406992  22.363888
Na  15.080047  23.028802  15.063265
Na  14.400814  23.432052  19.689817
Na  15.289791  22.235390  26.403188
Na  19.815723  16.566902  12.576161
Na  19.505748  15.767017  17.621760
Na  19.707225  15.040371  22.412871
Na  18.134134  19.519652  15.957534
Na  17.828285  18.962738  20.130783
Na  18.986201  18.996616  24.942783
Na  19.675450  22.724171  12.922512
Na  18.484232  23.327405  17.939072
Na  18.488552  22.941956  22.634091
Na  23.000840  14.383761  14.912374
Na  20.929771  11.781701  19.134540
Na  24.654497  14.340301  23.048695
Na  23.178043  19.032718  14.371394
Na  23.637873  16.349576  19.053977
Na  22.495301  19.731447  22.439909
Na  22.851126  23.777405  16.186057
Na  21.703603  20.178111  18.256748
Na  22.018734  24.291960  20.297032
27
Step=1500 t=1500.000fs 
Na  15.519833  15.391397  15.387450
Na  15.290822  14.527615  20.341632
Na  15.773521  15.916334  25.609745
Na  15.661723  19.578759  12.038742
Na  13.422235  18.944165  17.883635
Na  14.007525  19.187449  22.396826
Na  14.912047  22.987039  14.872154
Na  14.458463  23.524413  19.640461
Na  15.527622  22.003954  26.131719
Na  19.903571  16.870578  12.551477
Na  19.580774  15.969752  17.737407
Na  19.570125  15.336364  22.414462
Na  17.807663  19.344059  16.085340
Na  17.797953  18.941060  20.591206
Na  19.281722  19.044315  24.837380
Na  19.772761  22.397535  12.897458
Na  18.328376  23.267149  18.083355
Na  18.520319  23.106910  22.935643
Na  23.147019  14.087135  14.857636
Na  20.426171  11.862999  19.103800
Na  24.703976  14.552340  23.226736
Na  23.182992  19.099898  14.578502
Na  24.029060  16.106615  19.085266
Na  22.847501  19.775068  22.618485
Na  22.828575  23.977353  15.711164
Na  21.686757  20.042674  18.346918
Na  22.278918  24.425097  20.303426
27
Step=1600 t=1600.000fs 
Na  15.505623  15.412232  15.013838
Na  15.326801  14.483093  20.022456
Na  15.728315  15.984372  25.391665
Na  15.603329  19.585651  11.843019
Na  13.317549  18.667107  17.938135
Na  13.597232  19.025380  22.566210
Na  14.707944  23.061613  14.750174
Na  14.326138  23.479015  19.916260
Na  15.638019  21.673501  25.871310
Na  19.746137  17.098735  12.539059
Na  19.670293  16.081859  17.760759
Na  19.685279  15.461224  22.382375
Na  17.491016  19.356154  16.168196
Na  17.826675  19.154858  20.827317
Na  19.495159  19.077686  25.065101
Na  19.688072  21.956680  12.864621
Na  18.463608  23.259599  18.097762
Na  18.594467  23.321355  22.949134
Na  23.199422  13.761140  14.868225
Na  19.969019  11.925227  19.096821
Na  24.526477  14.800118  23.492868
Na  23.373703  19.165028  14.702766
Na  24.354268  16.038128  19.030126
Na  23.350070  19.779686  22.655077
Na  22.904386  24.179321  15.274010
Na  21.581297  19.976369  18.663996
Na  22.597726  24.502893  20.516746
27
Step=1700 t=1700.000fs 
Na  15.596577  15.310591  14.696659
Na  15.492286  14.651810  19.755444
Na  15.774065  16.009650  25.077228
Na  15.433751  19.420188  11.596283
Na  13.298733  18.521464  17.909815
Na  13.168871  18.897863  22.611191
Na  14.554985  23.173849  14.836803
Na  14.196824  23.214333  20.296612
Na  15.597559  21.322806  25.672530
Na  19.606516  17.106611  12.644493
Na  19.770152  16.171324  17.600130
Na  19.936534  15.469365  22.297251
Na  17.257585  19.531784  16.347540
Na  17.613412  19.453148  20.903776
Na  19.807671  19.118778  25.443040
Na  19.520530  21.601688  12.910246
Na  18.734862  23.366528  17.953408
Na  18.786845  23.542211  22.750703
Na  23.053175  13.570702  14.933886
Na  19.587802  11.937881  19.089144
Na  24.176373  15.067179  23.794947
Na  23.597437  19.137750  14.873614
Na  24.521921  16.107104  18.904828
Na  23.826014  19.781706  22.668933
Na  22.942724  24.290619  15.105283
Na  21.509444  20.058288  18.922798
Na  22.905376  24.432806  20.671443
27
Step=1800 t=1800.000fs 
Na  15.750400  15.155210  14.542677
Na  15.741316  15.025209  19.602907
Na  15.997840  15.984643  24.656346
Na  15.162742  19.211741  11.456256
Na  13.233583  18.493722  17.799393
Na  12.683668  18.724676  22.471333
Na  14.497504  23.219129  15.089735
Na  14.231834  22.839998  20.574145
Na  15.567356  21.054899  25.457396
Na  19.635858  16.875792  12.858718
Na  19.837010  16.342152  17.369369
Na  20.044302  15.666348  22.057756
Na  17.151157  19.658658  16.540394
Na  17.317618  19.517348  21.041725
Na  20.208499  19.162521  25.649477
Na  19.414414  21.498865  13.080723
Na  18.904331  23.674964  17.710251
Na  18.985629  23.652832  22.577225
Na  22.736057  13.518567  15.036198
Na  19.312237  11.914157  19.034935
Na  23.843326  15.302489  24.093026
Na  23.690255  19.072439  15.101247
Na  24.524897  16.245610  18.858761
Na  24.175318  19.826437  22.687880
Na  22.903841  24.245224  15.165040
Na  21.481735  20.126144  19.068155
Na  23.235302  24.258252  20.686960
27
Step=1900 t=1900.000fs 
Na  15.867475  14.992052  14.628930
Na  15.950183  15.480529  19.516325
Na  16.333880  15.950303  24.202487
Na  14.941774  19.031214  11.566230
Na  13.033548  18.536585  17.551656
Na  12.174009  18.434986  22.276811
Na  14.509258  23.169009  15.423113
Na  14.386029  22.587280  20.627999
Na  15.638425  20.865084  25.224139
Na  19.800644  16.671678  12.963582
Na  19.849764  16.541249  17.308190
Na  20.044103  16.078107  21.608934
Na  17.199626  19.693605  16.707126
Na  17.271991  19.375851  21.180169
Na  20.538263  19.241317  25.577209
Na  19.360749  21.508248  13.298959
Na  18.888418  24.029687  17.566513
Na  19.137696  23.565912  22.465446
Na  22.379576  13.502807  15.175077
Na  19.150766  11.949645  18.924810
Na  23.621280  15.457431  24.392748
Na  23.616706  19.067553  15.277322
Na  24.399636  16.350890  19.005351
Na  24.404074  19.910023  22.665660
Na  22.887908  24.045704  15.372070
Na  21.307043  20.176335  19.209754
Na  23.575199  24.054941  20.551415
27
Step=2000 t=2000.000fs 
Na  15.950473  14.859108  14.913678
Na  15.890951  15.784658  19.353214
Na  16.637919  15.850978  23.932533
Na  14.870190  18.897326  11.992264
Na  12.787195  18.617904  17.182411
Na  11.844098  18.093884  22.077814
Na  14.527469  23.056987  15.733869
Na  14.556337  22.498448  20.460781
Na  15.751376  20.715366  25.047927
Na  19.942012  16.700540  12.797162
Na  19.863163  16.660132  17.280470
Na  20.344774  16.402629  21.283395
Na  17.251625  19.721289  16.855641
Na  17.386696  19.389316  21.221034
Na  20.667700  19.395944  25.259182
Na  19.315547  21.478946  13.469245
Na  18.705358  24.307644  17.661360
Na  19.288619  23.316530  22.376321
Na  22.136047  13.413194  15.379421
Na  19.046445  12.120751  18.820342
Na  23.404370  15.515050  24.612308
Na  23.433399  19.126651  15.394421
Na  24.223430  16.375063  19.297022
Na  24.547284  19.958614  22.579456
Na  22.974904  23.734057  15.656342
Na  21.065400  20.383984  19.335432
Na  23.855242  23.893032  20.294981
27
Step=2100 t=2100.000fs 
Na  16.081220  14.758637  15.176017
Na  15.571376  15.924958  19.258819
Na  16.921706  15.638394  23.851744
Na  14.968208  18.811176  12.688277
Na  12.574175  18.692584  16.801530
Na  11.859755  17.806642  21.834712
Na  14.484359  22.988126  15.843298
Na  14.623561  22.494534  20.251560
Na  15.782362  20.599612  24.995839
Na  19.963542  16.884932  12.473294
Na  19.878658  16.726588  17.055958
Na  20.682103  16.437348  21.352659
Na  17.173361  19.766210  16.945504
Na  17.408901  19.450332  21.172338
Na  20.597067  19.616717  24.828308
Na  19.264587  21.461728  13.585867
Na  18.516981  24.511202  17.895169
Na  19.476622  23.195355  22.388008
Na  22.075832  13.273468  15.579531
Na  18.908102  12.426331  18.861388
Na  23.178825  15.468109  24.763255
Na  23.252017  19.091532  15.537821
Na  24.234929  16.343209  19.466760
Na  24.642807  19.936282  22.446142
Na  23.042102  23.431073  15.907003
Na  21.030385  20.694657  19.243040
Na  24.074482  23.838290  20.064184
27
Step=2200 t=2200.000fs 
Na  16.276493  14.614617  15.209350
Na  15.228425  16.002991  19.370292
Na  17.181828  15.372149  23.839422
Na  15.236230  18.745651  13.355748
Na  12.311393  18.711796  16.596457
Na  12.179066  17.667784  21.580929
Na  14.364788  23.102557  15.615778
Na  14.520137  22.515692  20.234276
Na  15.666682  20.499451  25.031216
Na  19.898798  17.059081  12.144545
Na  19.805822  16.820975  16.957619
Na  20.594266  16.395500  21.383184
Na  17.042306  19.791993  17.050312
Na  17.404214  19.258132  21.057749
Na  20.488632  19.757036  24.503618
Na  19.228414  21.571964  13.694974
Na  18.432554  24.655040  18.108189
Na  19.632402  23.461682  22.496722
Na  22.185341  13.164857  15.690443
Na  18.704175  12.819546  19.159760
Na  22.999850  15.347380  24.971290
Na  23.252051  18.832819  15.625450
Na  24.554368  16.250667  19.320149
Na  24.694868  19.859772  22.298732
Na  22.974363  23.317327  15.884661
Na  21.093151  20.721709  18.991792
Na  24.317411  23.949858  20.095370
27
Step=2300 t=2300.000fs 
Na  16.484229  14.368431  15.096087
Na  15.128034  15.828210  19.273285
Na  17.279675  15.111593  23.946212
Na  15.588927  18.626824  13.577308
Na  11.955038  18.703843  16.672102
Na  12.458407  17.856695  21.577388
Na  14.256235  23.362301  15.221254
Na  14.343960  22.486708  20.374381
Na  15.487141  20.375738  25.011194
Na  19.832770  17.171291  11.964610
Na  19.657294  16.835067  16.981050
Na  20.633025  16.402384  21.107708
Na  16.870861  19.984859  17.279744
Na  17.421837  19.152915  21.114494
Na  20.449161  19.722905  24.378598
Na  19.204640  21.773823  13.821416
Na  18.424125  24.662161  18.201401
Na  19.684997  23.910409  22.525467
Na  22.302520  13.177347  15.779281
Na  18.509010  13.116057  19.594939
Na  22.828855  15.243961  25.155587
Na  23.507468  18.483193  15.478984
Na  24.869339  16.074587  19.081541
Na  24.634918  19.710013  22.137592
Na  22.859233  23.413512  15.638471
Na  21.097991  20.568015  18.964897
Na  24.498335  24.145187  20.313035
27
Step=2400 t=2400.000fs 
Na  16.686708  13.977645  14.897213
Na  15.152374  15.580201  18.874575
Na  17.251753  15.004564  24.119933
Na  15.786009  18.460755  13.498496
Na  11.735378  18.742956  16.861553
Na  12.602358  18.298135  21.851997
Na  14.226732  23.576552  14.880227
Na  14.178454  22.500395  20.510084
Na  15.349864  20.255103  24.982098
Na  19.887134  17.231739  11.990149
Na  19.483513  16.911372  16.836537
Na  21.103107  16.464455  20.864355
Na  16.604543  20.353226  17.519130
Na  17.409625  19.135543  21.396002
Na  20.450390  19.656198  24.412023
Na  19.111230  21.884775  13.951567
Na  18.424229  24.515234  18.135911
Na  19.656503  24.194282  22.521808
Na  22.277788  13.310346  15.902114
Na  18.445930  13.002075  19.953952
Na  22.595456  15.208100  25.178497
Na  23.759136  18.288750  15.167474
Na  25.086869  15.823052  18.949047
Na  24.490334  19.505058  21.957749
Na  22.856937  23.554215  15.508831
Na  21.177858  20.560254  19.045863
Na  24.477815  24.273046  20.500841
27
Step=2500 t=2500.000fs 
Na  16.950517  13.452139  14.612360
Na  15.084853  15.656535  18.499270
Na  17.191961  15.147195  24.223930
Na  15.696120  18.313410  13.479644
Na  11.782392  18.866020  17.068045
Na  12.692197  18.553744  22.055987
Na  14.267885  23.655175  14.655476
Na  14.049299  22.769417  20.627182
Na  15.343465  20.266562  25.207185
Na  20.138118  17.238391  12.127079
Na  19.258273  17.241513  16.689613
Na  21.453072  16.409106  20.676390
Na  16.312229  20.505044  17.637703
Na  17.517414  18.924588  21.442906
Na  20.492794  19.690631  24.597665
Na  18.973320  21.792227  14.054914
Na  18.434343  24.374787  17.992638
Na  19.536353  24.161256  22.538100
Na  22.051518  13.499483  16.053549
Na  18.621233  12.673491  20.202720
Na  22.303192  15.201645  25.049826
Na  23.839150  18.332524  14.915419
Na  25.352928  15.543923  18.869393
Na  24.467402  19.371281  21.829121
Na  23.005320  23.625333  15.595572
Na  21.211110  20.736706  18.957360
Na  24.241564  24.265901  20.608981
27
Step=2600 t=2600.000fs 
Na  17.290636  13.018116  14.393577
Na  15.129500  15.832655  18.293548
Na  17.099474  15.440861  24.198861
Na  15.409591  18.145264  13.558966
Na  11.946062  19.099376  17.228085
Na  12.756447  18.504542  22.052919
Na  14.348842  23.592815  14.565032
Na  14.053749  23.222731  20.766422
Na  15.561822  20.432340  25.573533
Na  20.408331  17.180136  12.252154
Na  19.071455  17.599605  16.731737
Na  21.342037  16.260846  20.376425
Na  16.046665  20.427212  17.716483
Na  17.741713  18.660758  21.188522
Na  20.565487  19.833260  24.787191
Na  18.952870  21.545741  14.092285
Na  18.445720  24.408054  17.884879
Na  19.273292  23.816373  22.541837
Na  21.674449  13.744142  16.222924
Na  18.858273  12.493674  20.301892
Na  22.011378  15.175871  24.828549
Na  23.795982  18.553457  14.959679
Na  25.700933  15.318781  18.760567
Na  24.605698  19.382703  21.770171
Na  23.192353  23.590770  15.761583
Na  21.113926  20.834970  18.789488
Na  23.871342  24.152974  20.670720
27
Step=2700 t=2700.000fs 
Na  17.574429  12.855019  14.322764
Na  15.323950  15.736855  18.254083
Na  16.935996  15.739212  24.070473
Na  15.143576  17.918933  13.650412
Na  11.916548  19.406349  17.297904
Na  12.993844  18.360762  21.959394
Na  14.466162  23.414426  14.599896
Na  14.238184  23.592303  20.912981
Na  15.923814  20.638827  25.737692
Na  20.503469  17.025816  12.333168
Na  18.987020  17.674874  16.673245
Na  21.247082  16.242886  20.068374
Na  15.928541  20.575034  17.877688
Na  17.906018  18.652389  21.062912
Na  20.681247  19.945588  24.823333
Na  19.058927  21.298447  14.069066
Na  18.415901  24.565797  17.809008
Na  18.837029  23.268818  22.461098
Na  21.378513  14.036707  16.367395
Na  18.949832  12.474423  20.305585
Na  21.767621  15.153058  24.504540
Na  23.720329  18.826201  15.390862
Na  25.924325  15.221702  18.650740
Na  24.665332  19.378376  21.666403
Na  23.335847  23.504462  15.870446
Na  21.005425  20.743230  18.770376
Na  23.439061  24.017530  20.758187
27
Step=2800 t=2800.000fs 
Na  17.655406  12.916303  14.343688
Na  15.538294  15.441357  18.355368
Na  16.734853  15.910114  23.920199
Na  15.019697  17.696186  13.784103
Na  11.695372  19.679611  17.315199
Na  13.412560  18.300450  21.832248
Na  14.608077  23.186013  14.669593
Na  14.420356  23.791116  21.041638
Na  16.246410  20.795294  25.661201
Na  20.495772  16.809546  12.361664
Na  18.778822  17.598026  16.435733
Na  21.441047  16.433154  19.991677
Na  16.076463  20.840941  18.092932
Na  17.929472  18.814277  21.183905
Na  20.943911  19.906450  24.718176
Na  19.193012  21.205979  14.031481
Na  18.447009  24.743591  17.731765
Na  18.373426  22.778129  22.232603
Na  21.446013  14.185843  16.375142
Na  18.843478  12.546061  20.299363
Na  21.579578  15.163275  24.094869
Na  23.653712  18.923201  16.027688
Na  25.914697  15.251094  18.561707
Na  24.583074  19.278764  21.474957
Na  23.380439  23.472859  15.925366
Na  20.898787  20.674556  18.873652
Na  22.958288  23.925834  20.932109
27
Step=2900 t=2900.000fs 
Na  17.530257  13.094832  14.439218
Na  15.630296  15.212455  18.584968
Na  16.606481  15.773987  23.911469
Na  14.957878  17.562971  13.985774
Na  11.574385  19.890003  17.363405
Na  13.739751  18.456383  21.593448
Na  14.753593  22.951065  14.682528
Na  14.270152  23.932391  21.096176
Na  16.416896  20.821657  25.536110
Na  20.517645  16.633877  12.320361
Na  18.513173  17.556151  16.413097
Na  21.526975  16.659690  19.950989
Na  16.276279  20.869152  18.182542
Na  18.004395  18.578453  21.283376
Na  21.326885  19.809438  24.520011
Na  19.344681  21.290502  14.018491
Na  18.614416  24.935749  17.641939
Na  18.255776  22.724603  21.992031
Na  21.843486  14.102816  16.298381
Na  18.706047  12.745160  20.282621
Na  21.425101  15.136864  23.765096
Na  23.626510  18.763769  16.533208
Na  25.785063  15.308630  18.523165
Na  24.570551  19.241475  21.279175
Na  23.305017  23.529092  15.995956
Na  20.673020  20.767671  18.851474
Na  22.473313  23.919190  21.223016
27
Step=3000 t=3000.000fs 