27
Step=0 t=0.000fs 
Na  13.562816  13.562816  13.562816
Na  13.562816  13.562816  18.898816
Na  13.562816  13.562816  24.234816
Na  13.562816  18.898816  13.562816
Na  13.562816  18.898816  18.898816
Na  13.562816  18.898816  24.234816
Na  13.562816  24.234816  13.562816
Na  13.562816  24.234816  18.898816
Na  13.562816  24.234816  24.234816
Na  18.898816  13.562816  13.562816
Na  18.898816  13.562816  18.898816
Na  18.898816  13.562816  24.234816
Na  18.898816  18.898816  13.562816
Na  18.898816  18.898816  18.898816
Na  18.898816  18.898816  24.234816
Na  18.898816  24.234816  13.562816
Na  18.898816  24.234816  18.898816
Na  18.898816  24.234816  24.234816
Na  24.234816  13.562816  13.562816
Na  24.234816  13.562816  18.898816
Na  24.234816  13.562816  24.234816
Na  24.234816  18.898816  13.562816
Na  24.234816  18.898816  18.898816
Na  24.234816  18.898816  24.234816
Na  24.234816  24.234816  13.562816
Na  24.234816  24.234816  18.898816
Na  24.234816  24.234816  24.234816
27
Step=100 t=100.000fs 
Na  14.056016  13.554118  14.561609
Na  14.016350  12.715914  19.956977
Na  14.107787  14.428501  23.388184
Na  13.373268  18.644837  14.692315
Na  13.937039  19.751925  18.799385
Na  12.859247  19.078057  23.109694
Na  14.304669  24.527907  14.309860
Na  13.164913  25.359755  19.858087
Na  14.075838  23.461875  24.127903
Na  17.765816  12.866050  14.112063
Na  19.347070  14.869645  18.487126
Na  18.489620  13.637242  23.384508
Na  17.892943  18.877142  13.076369
Na  19.159311  18.836680  19.743905
Na  19.194736  18.524041  24.941348
Na  19.523475  23.920932  13.151289
Na  19.129820  23.281923  18.191651
Na  17.668186  24.908501  24.548883
Na  24.503099  14.381401  13.526579
Na  24.170309  12.829479  18.016468
Na  24.423519  13.592835  24.328556
Na  24.625463  19.275592  13.755126
Na  24.094452  18.450140  17.831225
Na  23.851304  18.297153  23.897456
Na  24.899733  23.611325  12.570922
Na  23.489611  23.673872  19.300411
Na  24.144429  24.911180  24.600127
27
Step=200 t=200.000fs 
Na  13.832760  13.890055  15.913559
Na  14.673794  11.745112  20.289458
Na  14.620541  15.833191  23.029493
Na  13.208216  18.320893  15.721758
Na  14.814874  20.789114  18.846476
Na  12.204633  19.141338  21.961673
Na  15.214504  24.582794  15.293705
Na  12.946871  26.333638  20.698832
Na  14.188606  22.306967  23.935722
Na  17.576902  12.183136  14.708542
Na  19.739694  16.025848  17.861683
Na  18.481237  13.830085  22.319340
Na  17.094943  18.798713  12.936845
Na  19.313395  19.083571  20.829671
Na  19.229391  18.238948  25.451495
Na  20.221218  23.408092  12.877056
Na  18.969872  22.141617  17.412057
Na  17.153205  25.669651  24.699461
Na  24.565500  15.277461  13.482737
Na  23.906144  12.240565  17.331913
Na  24.430189  13.582658  24.232320
Na  24.804891  19.644115  13.738524
Na  23.594903  17.862930  17.306532
Na  23.357110  17.903046  23.180405
Na  25.480187  23.149921  11.621447
Na  22.786613  22.860727  19.731628
Na  23.857836  25.423841  24.855692
27
Step=300 t=300.000fs 
Na  13.340188  14.335903  17.540585
Na  15.394340  10.763772  20.359477
Na  15.271800  17.384711  22.736634
Na  13.043567  18.174190  16.692957
Na  15.936065  21.904490  19.215891
Na  11.195193  19.075014  20.593431
Na  16.136338  24.545365  16.315954
Na  12.900476  27.058288  21.444456
Na  14.448054  21.088429  23.767528
Na  18.008831  11.585885  15.376449
Na  19.496634  16.823982  16.990733
Na  18.994085  14.149097  21.103963
Na  16.579489  18.697595  13.117210
Na  19.097745  19.571115  21.983994
Na  19.021824  17.994209  25.946019
Na  20.937194  22.723738  12.720679
Na  18.884544  20.786505  16.457453
Na  17.004609  26.424361  24.687353
Na  24.438871  15.867286  13.315347
Na  23.406956  11.845278  16.852871
Na  24.266546  13.469791  23.980529
Na  24.783572  20.144180  13.737121
Na  23.161770  17.413243  17.497232
Na  22.911088  17.706705  22.128510
Na  26.039732  23.059516  10.521704
Na  22.176401  21.920423  20.202423
Na  23.392113  25.754953  24.981524
27
Step=400 t=400.000fs 
Na  13.190017  14.380605  19.407276
Na  16.207082  9.940515  20.406576
Na  15.997589  17.743809  21.797381
Na  13.423401  18.691680  17.362114
Na  16.758317  22.554859  20.278160
Na  9.964182  19.105799  19.388960
Na  17.078749  24.864539  16.891908
Na  12.979588  27.499651  22.097107
Na  14.589915  20.822178  23.968843
Na  18.479431  11.319075  16.223197
Na  18.284482  16.566707  16.321796
Na  19.617638  14.663347  19.798965
Na  16.053300  18.519218  13.302270
Na  18.705559  20.267391  22.772104
Na  18.834050  17.633487  26.580325
Na  21.449050  22.043320  12.575654
Na  19.340949  20.003930  15.586783
Na  16.975113  26.890783  24.508800
Na  24.081501  16.083413  13.059876
Na  22.727647  11.744090  16.531241
Na  23.910064  13.365252  23.568500
Na  24.726248  20.748703  14.170026
Na  23.338204  17.161904  17.801630
Na  22.595070  17.336493  21.279865
Na  26.580665  23.102943  9.302522
Na  21.652451  21.316296  20.320381
Na  22.727766  25.898037  24.965763
27
Step=500 t=500.000fs 
Na  13.272970  14.295090  21.314532
Na  17.111389  9.342285  20.515377
Na  16.722661  16.946453  20.174237
Na  14.588949  19.510556  17.776517
Na  17.204673  23.216580  21.158115
Na  8.526166  19.237204  18.612473
Na  18.166784  25.237822  17.092954
Na  13.038775  27.723960  22.597104
Na  14.133947  21.288573  24.612837
Na  18.510019  11.216393  17.023110
Na  16.830843  15.194687  15.970593
Na  20.021800  14.976491  18.777452
Na  15.244564  18.401475  13.112673
Na  19.079514  20.912279  24.092884
Na  18.685585  17.165210  27.077303
Na  21.516848  21.680576  11.904164
Na  20.041872  20.145454  15.430544
Na  17.176855  27.041631  24.266954
Na  23.426870  16.237551  12.843946
Na  22.405347  11.981820  16.322154
Na  23.362493  13.242254  23.007171
Na  25.135054  21.197419  15.132440
Na  23.694948  16.911140  17.118130
Na  22.153705  17.018381  21.617725
Na  27.026420  23.079685  8.162382
Na  21.340133  21.232734  19.765576
Na  21.848839  25.834320  24.788678
27
Step=600 t=600.000fs 
Na  13.468134  14.203583  23.082040
Na  17.960716  8.852155  21.019199
Na  17.543172  16.510482  19.185656
Na  15.785342  20.709095  18.193276
Na  17.302101  23.855271  21.610409
Na  7.320690  19.342740  17.889516
Na  19.337005  25.394321  17.217142
Na  12.982339  27.769530  22.941005
Na  13.691872  21.712824  25.110496
Na  18.083234  11.017169  17.508729
Na  15.267856  13.941162  15.376095
Na  20.600835  15.133855  17.866898
Na  14.573028  18.439171  12.865680
Na  19.729075  21.264227  25.634198
Na  18.518453  16.636664  27.278818
Na  21.591889  21.454053  10.830863
Na  20.283529  19.840878  15.764457
Na  17.470867  27.092975  24.107271
Na  22.484522  16.436200  12.475075
Na  22.734802  12.329014  16.001686
Na  22.696429  12.821612  22.335507
Na  25.572144  21.600702  16.266004
Na  24.199217  16.828180  16.523432
Na  21.576618  17.329401  22.421187
Na  27.363857  22.991314  7.161045
Na  21.111010  21.239218  19.149524
Na  21.019289  25.522229  24.452819
27
Step=700 t=700.000fs 
Na  13.965449  14.238105  24.735649
Na  18.856358  8.350471  21.982417
Na  17.586227  16.462921  18.820252
Na  16.963869  21.948623  18.514263
Na  17.285681  23.948209  21.784822
Na  6.225232  19.440203  17.155657
Na  20.549006  25.403960  17.360813
Na  12.852966  27.644557  23.207287
Na  13.509753  22.150867  25.424229
Na  17.729318  11.045410  17.704253
Na  13.712774  12.898917  14.747374
Na  21.356048  15.335981  16.989652
Na  14.152003  18.523640  12.835240
Na  20.257934  21.457317  27.023876
Na  18.302863  16.077350  27.196356
Na  21.703702  21.175849  9.911831
Na  20.134633  19.188738  15.436463
Na  17.317239  27.696070  24.220326
Na  21.261629  16.626651  11.976627
Na  23.388014  12.197503  15.415525
Na  21.835589  12.288271  21.415328
Na  25.763663  21.992070  17.408185
Na  25.126687  17.077689  16.264321
Na  20.792641  17.997750  23.116550
Na  27.624884  22.858169  6.220864
Na  21.080303  21.316094  19.432799
Na  20.933558  24.926641  23.967065
27
Step=800 t=800.000fs 
Na  14.595509  14.337989  26.249091
Na  19.746828  7.895050  23.034137
Na  17.283357  16.572768  18.726170
Na  17.761201  22.729406  18.130688
Na  17.027003  23.904739  22.333216
Na  5.160507  19.532856  16.390852
Na  21.806646  25.401853  17.532751
Na  12.616240  27.337433  23.400063
Na  13.615845  22.611040  25.598464
Na  17.480273  11.328046  17.839185
Na  12.279929  12.007393  14.177635
Na  21.769495  15.523852  16.552542
Na  13.999570  18.558401  13.038577
Na  20.601135  21.521857  28.330288
Na  18.166766  15.600963  26.966560
Na  21.844616  20.890401  9.163355
Na  19.759129  18.970746  14.954262
Na  17.133636  28.624607  24.540149
Na  19.974536  16.568660  11.416944
Na  24.199399  11.648392  14.642453
Na  20.872773  12.054792  20.305262
Na  25.699718  22.361600  18.579196
Na  26.296858  17.599183  15.994285
Na  19.847832  18.716922  23.562985
Na  27.822752  22.689190  5.306862
Na  21.486327  21.101995  20.167717
Na  21.420144  24.177893  23.334338
27
Step=900 t=900.000fs 
Na  14.600800  14.266447  27.583763
Na  20.617567  7.512691  24.101241
Na  17.009083  16.845186  18.754944
Na  18.365891  23.247052  17.336478
Na  16.689513  23.839049  23.084978
Na  4.077755  19.621202  15.575316
Na  23.047532  25.399990  17.741010
Na  12.333756  26.908846  23.523391
Na  13.877024  22.976962  25.825376
Na  16.840986  11.705713  17.633109
Na  10.939679  11.200501  13.651574
Na  22.175091  15.586964  16.376822
Na  14.103043  18.504096  13.436222
Na  20.808334  21.553838  29.441259
Na  18.833820  15.413679  26.743807
Na  22.014659  20.566849  8.544950
Na  19.259081  19.400391  14.729148
Na  17.129548  29.466242  24.883109
Na  18.624419  16.212789  10.730043
Na  24.950456  11.142792  13.881768
Na  20.294529  12.183420  19.390140
Na  25.660426  22.653563  19.789810
Na  27.324088  18.219552  15.713367
Na  18.651151  19.461358  23.943237
Na  27.968153  22.485688  4.389414
Na  21.986784  20.274188  20.577188
Na  22.084855  23.618976  22.886560
27
Step=1000 t=1000.000fs 
Na  14.252763  14.151667  28.930290
Na  21.503334  7.253641  25.161882
Na  16.899328  17.304396  18.843635
Na  19.001579  23.717341  16.793996
Na  16.896278  24.008348  23.289814
Na  2.946739  19.705640  14.700621
Na  24.055392  25.474468  17.837376
Na  12.081820  26.524034  23.569208
Na  13.944199  23.048867  26.545426
Na  15.494209  12.153971  16.950181
Na  9.639602  10.437118  13.144893
Na  22.567947  15.807105  16.192313
Na  14.384762  18.358578  14.001892
Na  20.898638  21.546302  30.319401
Na  20.016449  15.387898  26.364341
Na  22.173581  20.156928  8.055062
Na  18.877299  19.833598  14.561001
Na  17.138007  30.122651  25.191556
Na  17.231580  15.809222  10.160773
Na  25.613279  10.770613  13.174316
Na  20.359290  12.528683  18.894940
Na  26.111542  22.692931  21.036130
Na  28.131860  18.917483  15.489570
Na  17.324192  20.125723  24.315957
Na  28.069258  22.248414  3.453739
Na  22.175329  18.682969  20.427651
Na  22.479767  23.499434  22.862061
27
Step=1100 t=1100.000fs 
Na  13.981497  14.119810  30.260080
Na  22.408216  7.081413  26.237172
Na  16.987466  17.870547  18.993675
Na  19.722367  24.236173  16.622653
Na  17.453351  24.782485  22.980192
Na  1.763335  19.786980  13.776998
Na  24.908275  25.494529  17.849355
Na  11.922862  26.168670  23.561792
Na  13.878688  23.004956  27.648913
Na  14.040162  12.807969  16.106847
Na  8.365968  9.701158  12.652367
Na  22.941877  16.246031  15.817588
Na  14.650532  18.078997  14.687475
Na  20.883195  21.499344  30.993271
Na  21.209724  15.495117  25.799149
Na  22.298465  19.670305  7.686113
Na  18.776774  19.975188  14.339987
Na  17.101979  30.572356  25.457895
Na  15.856532  15.451744  9.773173
Na  26.208551  10.517900  12.518763
Na  20.432526  12.984921  18.527293
Na  27.042064  22.407405  22.163659
Na  28.730546  19.674294  15.354841
Na  16.200985  20.183695  24.680627
Na  28.130022  21.981129  2.504132
Na  22.147558  17.037506  20.226744
Na  22.224507  23.437401  23.047268
27
Step=1200 t=1200.000fs 
Na  13.764699  14.162133  31.590097
Na  23.342669  6.966192  27.345635
Na  17.299582  18.504358  19.293277
Na  20.508906  24.679862  16.718490
Na  17.972911  25.719875  22.546950
Na  0.514438  19.867204  12.808069
Na  25.713937  25.327087  17.932559
Na  11.940153  25.744246  23.577644
Na  13.841405  23.071549  28.855763
Na  12.635927  13.607715  15.185063
Na  7.102710  8.985605  12.165109
Na  23.322030  16.869195  15.137021
Na  14.779339  17.664196  15.362393
Na  20.777640  21.425166  31.507848
Na  22.363028  15.746321  25.063163
Na  22.395536  19.128333  7.430233
Na  18.999192  19.975181  14.112190
Na  17.025218  30.832548  25.680463
Na  14.484623  15.141821  9.579386
Na  26.761273  10.359555  11.896973
Na  20.224881  13.326400  18.042907
Na  28.012262  21.995873  23.190797
Na  29.149938  20.481584  15.310548
Na  15.279686  19.975382  24.879686
Na  28.153867  21.685397  1.535321
Na  22.124522  15.813382  20.358514
Na  21.777651  23.211865  23.161927
27
Step=1300 t=1300.000fs 
Na  13.569447  14.267208  32.944458
Na  24.314778  6.888149  28.492367
Na  17.898643  19.244899  19.774835
Na  21.305679  24.945170  16.998602
Na  18.275125  26.694323  22.061158
Na  36.978524  19.949917  11.797338
Na  26.498951  24.961903  18.110311
Na  12.176777  25.218897  23.656653
Na  13.888378  23.189909  30.033615
Na  11.159087  14.316023  14.176322
Na  5.832982  8.287489  11.672340
Na  23.666767  17.617649  14.439980
Na  14.976162  17.294462  15.970923
Na  20.590265  21.337162  31.904487
Na  23.518966  16.157872  24.433720
Na  22.478266  18.544902  7.293648
Na  19.373149  19.924762  13.953524
Na  16.919309  30.926341  25.857018
Na  13.097871  14.867811  9.566745
Na  27.289980  10.273579  11.288715
Na  19.537273  13.385954  17.054078
Na  28.846238  21.548186  24.137344
Na  29.418403  21.334822  15.345020
Na  14.498123  19.817371  24.931343
Na  28.143762  21.362856  0.535741
Na  22.365622  15.214566  20.668761
Na  21.447131  22.695845  23.168980
27
Step=1400 t=1400.000fs 
Na  13.386626  14.426398  34.312720
Na  25.314506  6.830388  29.663152
Na  18.697754  20.039783  20.282897
Na  22.058987  24.991860  17.418082
Na  18.506577  27.591540  21.549651
Na  35.563502  20.041130  10.773759
Na  27.212412  24.471132  18.399115
Na  12.630748  24.625104  23.792932
Na  14.025445  23.281596  31.100822
Na  9.591867  14.985522  13.234814
Na  4.563918  7.611812  11.173403
Na  24.053630  18.374434  13.865702
Na  15.319421  16.937239  16.570654
Na  20.325659  21.247244  32.209773
Na  24.814910  16.875804  24.263293
Na  22.556589  17.940033  7.296323
Na  19.681651  19.869697  13.934508
Na  16.792879  30.873846  25.984518
Na  11.774087  14.623224  9.559711
Na  27.795906  10.246036  10.687436
Na  18.702456  13.605401  15.862899
Na  29.537852  21.070208  24.998224
Na  29.595068  22.153717  15.390301
Na  13.840112  19.770409  24.916794
Na  28.100639  21.021353  37.309291
Na  22.471803  14.754769  20.443581
Na  21.150653  22.008345  23.071299
27
Step=1500 t=1500.000fs 
Na  13.212893  14.635142  35.708392
Na  26.348324  6.781443  30.868067
Na  19.210816  20.568771  20.240505
Na  22.743699  24.810221  17.947223
Na  18.748771  28.318145  21.047506
Na  34.044456  20.146880  9.752009
Na  27.702466  23.993419  18.987816
Na  13.278744  24.095183  23.940024
Na  14.246807  23.324671  32.070463
Na  7.817667  15.721598  12.658101
Na  3.278629  6.947956  10.661000
Na  24.616942  19.124773  13.393527
Na  15.654837  16.746620  17.238850
Na  19.983291  21.163544  32.450832
Na  26.159013  17.840133  24.153457
Na  22.639108  17.321675  7.455305
Na  19.795988  19.816932  14.106864
Na  16.652697  30.686777  26.059262
Na  10.673178  14.338025  9.254308
Na  28.288169  10.270124  10.079056
Na  18.023733  13.921657  14.596688
Na  30.116398  20.556956  25.792463
Na  29.838398  22.787533  15.211597
Na  13.332595  19.714476  24.879681
Na  28.023235  20.662490  36.243666
Na  22.399717  14.426887  19.938178
Na  21.235086  21.545994  23.330816
27
Step=1600 t=1600.000fs 
Na  13.049565  14.886677  37.121985
Na  27.405255  6.734497  32.098099
Na  19.256554  20.803472  19.374659
Na  23.314142  24.429775  18.535576
Na  19.008976  28.863942  20.583707
Na  32.425300  20.268594  8.764612
Na  27.997567  23.465284  19.902211
Na  14.125536  23.871908  24.025162
Na  14.538495  23.318369  32.960928
Na  5.892963  16.522124  12.270802
Na  1.980351  6.295293  10.138721
Na  25.280701  19.909903  13.008435
Na  15.989006  16.814257  18.086630
Na  19.580603  21.090835  32.642433
Na  27.323140  18.879343  23.872384
Na  22.731915  16.707643  7.780644
Na  19.815154  19.709299  14.471528
Na  16.511970  30.369790  26.068064
Na  9.729349  13.987567  8.787727
Na  28.766420  10.341522  9.462936
Na  17.560910  14.239499  13.206221
Na  30.706081  20.093290  26.584000
Na  30.124338  23.268159  14.762794
Na  12.953503  19.404394  24.865685
Na  27.912494  20.292958  35.134055
Na  22.230017  14.337564  19.337825
Na  21.855353  21.362065  24.217834
27
Step=1700 t=1700.000fs 
Na  12.897720  15.170374  0.737025
Na  28.462399  6.687656  33.328335
Na  19.309968  21.065545  18.601937
Na  23.736263  23.913307  19.120871
Na  19.277846  29.232935  20.186955
Na  30.726305  20.400279  7.861848
Na  28.272881  22.845399  20.864337
Na  15.185843  23.875308  24.045545
Na  14.849154  23.282725  33.784518
Na  3.996266  17.297748  11.867643
Na  0.686274  5.661828  9.616514
Na  25.913157  20.711202  12.723730
Na  16.432654  16.942774  18.949983
Na  19.178476  21.018037  32.781562
Na  28.156298  19.894298  23.360387
Na  22.832976  16.122382  8.269815
Na  19.905038  19.478178  14.818607
Na  16.386740  29.927340  25.996588
Na  8.798138  13.652717  8.346012
Na  29.222942  10.460080  8.849244
Na  17.193870  14.680752  11.865179
Na  31.420245  19.729863  27.495660
Na  30.303589  23.663770  14.286542
Na  12.648245  18.918724  24.844158
Na  27.775152  19.923713  33.979463
Na  21.957411  14.497196  18.659929
Na  22.539808  21.213895  25.025637
27
Step=1800 t=1800.000fs 
Na  12.746393  15.481082  2.193810
Na  29.537378  6.642236  34.580318
Na  19.377737  21.580281  18.408679
Na  24.044120  23.293064  19.697021
Na  19.549590  29.435212  19.867072
Na  28.913548  20.533970  7.060713
Na  28.572160  23.019901  21.109608
Na  16.421361  23.884135  24.016315
Na  15.092076  23.268830  34.600361
Na  2.110583  18.046553  11.419203
Na  37.162093  5.035567  9.084341
Na  26.460757  21.477906  12.510161
Na  16.957278  17.086003  19.807784
Na  18.870617  20.899859  32.843130
Na  28.821536  20.089156  23.483075
Na  22.937369  15.575414  8.920026
Na  20.172281  18.939535  14.744814
Na  16.291072  29.355278  25.836830
Na  7.841555  13.353787  7.916062
Na  29.665857  10.626672  8.227590
Na  16.923279  15.243220  10.594449
Na  32.095692  19.396993  28.452428
Na  30.392972  24.000250  13.850507
Na  12.448559  18.452052  24.765859
Na  27.624291  19.551961  32.723215
Na  21.583206  14.903525  17.899355
Na  23.249930  21.095581  25.655301
27
Step=1900 t=1900.000fs 
Na  12.589691  15.799933  3.703018
Na  30.615618  6.601088  35.841934
Na  19.417429  22.241702  18.549915
Na  24.191967  22.585780  20.258835
Na  19.809774  29.464839  19.637125
Na  27.038254  20.650969  6.386049
Na  28.901566  24.080483  20.608537
Na  17.783784  23.816123  23.906367
Na  15.223452  23.310967  35.447503
Na  0.236591  18.773875  10.947704
Na  35.820243  4.428836  8.547235
Na  26.790459  22.093499  12.312085
Na  17.533260  17.321890  20.667423
Na  18.708856  20.711049  32.786558
Na  29.424712  19.395633  24.392417
Na  23.030441  15.110459  9.698055
Na  20.535484  18.274273  14.379936
Na  16.245003  28.691418  25.597395
Na  6.899801  13.095918  7.473581
Na  30.094456  10.826444  7.606359
Na  16.760511  15.871031  9.389029
Na  32.649749  19.090817  29.369238
Na  30.529699  24.353471  13.499892
Na  12.383442  18.048296  24.625403
Na  27.468694  19.192906  31.350870
Na  21.194983  15.422834  17.152776
Na  23.985371  21.013492  26.132788
27
Step=2000 t=2000.000fs 
Na  12.436153  16.109944  5.269667
Na  31.686682  6.565420  37.113021
Na  19.452488  22.838878  18.735435
Na  24.217768  21.790056  20.852776
Na  20.051502  29.304609  19.504730
Na  25.151680  20.733700  5.857032
Na  29.249576  25.113931  20.067970
Na  19.259632  23.639094  23.704376
Na  15.312271  23.368371  36.304298
Na  36.159798  19.491159  10.473430
Na  34.465452  3.860151  8.003748
Na  26.791275  22.474260  12.077955
Na  18.164051  17.714303  21.511800
Na  18.628458  20.500195  32.628708
Na  29.914867  18.747391  25.373349
Na  23.086291  14.762560  10.558091
Na  20.832049  18.125099  13.533467
Na  16.259350  27.978509  25.288168
Na  6.008648  12.880647  7.014948
Na  30.511512  11.033116  6.992167
Na  16.695471  16.519103  8.244141
Na  33.097321  18.803600  30.216735
Na  30.848751  24.794063  13.278992
Na  12.452743  17.699312  24.433254
Na  27.302559  18.864274  29.863695
Na  20.907313  15.599714  16.878309
Na  24.717257  20.956566  26.487762
27
Step=2100 t=2100.000fs 
Na  12.197479  16.396337  6.827148
Na  32.753900  6.538916  0.632160
Na  19.525988  23.342373  18.861952
Na  24.202556  20.960118  21.467295
Na  20.279538  28.942158  19.471018
Na  23.255850  20.772927  5.478062
Na  29.496554  26.034849  19.494734
Na  20.812468  23.391911  23.536865
Na  15.426064  23.389779  37.136412
Na  34.239183  20.229029  10.015060
Na  33.091852  3.344053  7.433260
Na  26.572943  22.681579  11.821017
Na  18.878156  18.278034  22.320622
Na  18.568775  20.319698  32.419114
Na  30.406966  18.176465  26.257006
Na  23.142043  14.448025  11.397832
Na  21.063782  18.504839  12.306820
Na  16.358631  27.198052  24.894324
Na  5.172516  12.702893  6.548789
Na  30.929432  11.216614  6.374637
Na  16.815465  17.186227  7.211253
Na  33.431146  18.526451  30.992468
Na  31.275761  25.256757  13.150598
Na  12.649183  17.395551  24.202061
Na  27.215663  18.414832  28.621795
Na  20.659523  15.548225  17.060203
Na  25.239501  21.071335  26.537890
27
Step=2200 t=2200.000fs 
Na  11.792627  16.646871  8.359024
Na  33.808304  6.524032  2.047072
Na  19.641324  23.727432  18.946802
Na  24.290493  19.971350  21.888857
Na  20.510269  28.411877  19.542058
Na  21.313576  20.754702  5.242681
Na  29.648894  26.859959  18.867080
Na  22.208033  23.313676  23.575063
Na  15.589270  23.351981  0.146439
Na  32.229066  21.019398  9.597953
Na  31.706100  2.898461  6.803366
Na  26.291004  22.794799  11.576584
Na  19.657594  18.965981  23.083975
Na  18.517221  20.182987  32.179849
Na  31.361714  17.638074  26.750786
Na  23.237797  14.068246  12.211373
Na  21.225952  19.135081  11.073822
Na  16.596383  26.307577  24.388836
Na  4.374557  12.552728  6.084704
Na  31.365057  11.345720  5.735396
Na  17.221275  17.914592  6.271510
Na  33.654004  18.251249  31.697213
Na  31.680304  25.657231  13.060168
Na  12.969933  17.137782  23.943683
Na  26.964085  17.533971  28.141955
Na  20.438609  15.626746  17.285725
Na  25.367477  21.675521  26.170787
27
Step=2300 t=2300.000fs 
Na  11.428615  16.900245  9.852268
Na  34.811038  6.527741  3.554249
Na  19.780954  23.791288  19.111256
Na  24.615883  18.670046  21.953218
Na  20.795909  27.912408  19.746620
Na  19.596170  20.928606  5.033931
Na  29.729771  27.600173  18.182770
Na  23.052423  23.797130  23.504622
Na  15.821879  23.231416  0.967550
Na  30.145840  21.853431  9.238878
Na  30.352647  2.538538  6.116537
Na  26.011819  22.850408  11.358160
Na  20.303476  19.678243  23.834046
Na  18.482308  20.084471  31.906972
Na  32.511664  17.156619  27.110100
Na  23.295876  13.781220  13.036176
Na  21.389046  19.785247  9.844454
Na  17.022983  25.289417  23.765631
Na  3.591232  12.413570  5.628254
Na  31.831030  11.397701  5.076308
Na  17.433541  18.464232  5.455203
Na  33.800188  17.974137  32.340299
Na  31.992685  25.984996  12.990298
Na  13.410594  16.936985  23.670954
Na  26.477799  16.562856  27.818665
Na  20.273749  15.874184  17.522693
Na  25.701801  22.282716  26.052650
27
Step=2400 t=2400.000fs 
Na  11.132800  17.171330  11.310640
Na  35.762777  6.561087  5.128974
Na  19.908479  23.280770  19.304426
Na  25.006655  17.355451  21.949023
Na  21.212040  27.690348  20.107350
Na  18.911003  22.301192  4.636273
Na  29.749811  28.275340  17.442243
Na  23.376769  24.659274  22.938917
Na  16.100021  23.021672  1.820569
Na  28.256209  22.676787  8.768319
Na  29.041975  2.251774  5.389594
Na  25.467931  22.938068  11.341845
Na  20.787096  20.423892  24.608931
Na  18.476571  20.011870  31.572872
Na  33.568562  16.701186  27.474965
Na  23.308204  13.624233  13.876035
Na  21.579157  20.393119  8.646020
Na  17.635977  24.147108  23.092028
Na  2.769715  12.258040  5.167835
Na  32.347832  11.379874  4.402956
Na  16.607271  17.880609  4.884821
Na  33.902977  17.687292  32.947625
Na  32.194264  26.253673  12.917788
Na  13.981192  16.804137  23.383727
Na  25.963728  15.727931  27.387175
Na  20.174096  16.274835  17.825712
Na  26.437806  22.517134  26.346098
27
Step=2500 t=2500.000fs 
Na  10.887196  17.451515  12.740154
Na  36.676693  6.668275  6.703666
Na  20.210426  22.318276  19.221041
Na  25.273954  16.193569  21.975772
Na  21.556912  27.771399  20.383237
Na  18.957675  23.929806  4.706598
Na  29.701715  28.891946  16.682174
Na  23.753594  25.322333  22.436510
Na  15.880502  22.775432  2.203512
Na  26.954392  23.453592  7.769601
Na  27.775730  2.012540  4.653539
Na  24.286795  23.098444  11.960063
Na  21.361302  21.086699  25.367097
Na  18.514205  19.958562  31.145050
Na  34.535423  16.262735  27.863274
Na  23.289715  13.570758  14.751000
Na  21.788694  20.962891  7.466708
Na  18.154968  23.054819  22.662700
Na  1.865309  12.053576  4.705322
Na  32.942467  11.301589  3.737593
Na  15.617804  17.092860  4.381567
Na  33.980812  17.387260  33.513863
Na  32.284782  26.466734  12.812310
Na  14.698630  16.762160  23.073706
Na  25.439122  15.057179  26.877327
Na  20.136137  16.820968  18.236864
Na  27.135965  22.542110  26.642513
27
Step=2600 t=2600.000fs 
Na  10.679941  17.734884  14.165148
Na  37.569638  6.882129  8.222691
Na  20.922820  21.247115  18.707885
Na  25.386248  15.206245  21.887484
Na  21.449601  28.211167  20.261559
Na  19.488882  25.667952  5.198858
Na  29.570377  29.471251  15.946517
Na  24.532356  25.323257  22.372986
Na  15.198118  22.339765  2.193789
Na  25.738794  24.248426  6.646605
Na  26.528737  1.792926  3.917535
Na  22.953561  23.250916  12.785416
Na  22.142661  21.602046  26.129458
Na  18.607965  19.921992  30.594544
Na  35.444256  15.843818  28.295143
Na  23.244907  13.616537  15.706554
Na  22.016397  21.469151  6.339541
Na  18.348750  22.105927  22.619124
Na  0.856040  11.782066  4.252272
Na  33.642333  11.178246  3.100026
Na  14.687210  16.447047  3.891790
Na  34.050919  17.064692  34.033417
Na  32.307034  26.635197  12.660593
Na  15.595505  16.838673  22.719765
Na  24.882643  14.518619  26.417801
Na  20.140429  17.396627  18.776123
Na  27.674800  22.471352  26.830137
27
Step=2700 t=2700.000fs 
Na  10.512257  18.018877  15.608713
Na  0.645879  7.185342  9.656776
Na  22.031546  20.907353  18.060864
Na  25.367981  14.398066  21.501046
Na  21.175702  28.635609  20.008631
Na  20.037220  27.396569  5.703000
Na  29.353838  30.032331  15.258736
Na  25.387996  24.966189  22.445876
Na  14.582022  21.844079  2.231002
Na  24.631829  25.213899  5.609586
Na  25.289239  1.580507  3.182220
Na  21.617204  23.381783  13.605626
Na  22.970284  22.023684  26.787461
Na  18.764720  19.895748  29.901733
Na  36.306890  15.446918  28.786204
Na  23.171296  13.782923  16.784563
Na  22.044855  21.774986  5.261996
Na  18.533057  21.173272  22.699797
Na  37.746541  11.473972  3.876473
Na  34.247390  11.022838  2.434556
Na  13.792155  15.906216  3.397122
Na  34.131375  16.704606  34.510526
Na  32.305395  26.764362  12.466204
Na  16.654953  17.010979  22.330618
Na  24.247714  14.096420  26.147546
Na  20.025894  17.283770  19.490978
Na  28.085687  22.346727  26.924910
27
Step=2800 t=2800.000fs 
Na  10.393700  18.308850  17.108112
Na  1.516159  7.548463  11.039199
Na  23.386707  20.954496  17.503788
Na  25.302613  13.741607  21.020691
Na  20.953888  28.885661  19.749144
Na  20.525649  29.104652  6.234843
Na  29.070862  30.584081  14.593179
Na  26.118639  24.466191  22.498209
Na  14.033884  21.296501  2.314364
Na  23.810398  26.463969  4.619266
Na  24.029176  1.364435  2.434393
Na  20.258265  23.541802  14.416880
Na  23.683030  22.362764  27.286550
Na  18.991029  19.862986  29.027790
Na  37.141655  15.063067  29.357189
Na  23.009856  14.060380  17.858715
Na  21.747375  21.822172  4.163755
Na  19.029548  20.559787  22.870595
Na  37.646169  11.238420  3.895876
Na  34.048885  10.781444  1.373755
Na  12.905753  15.440478  2.884011
Na  34.242402  16.277672  34.971473
Na  32.290541  26.873723  12.250660
Na  17.320466  16.931130  22.233262
Na  23.488804  13.814053  25.961919
Na  20.240080  16.732643  20.053662
Na  28.475386  22.186601  26.951482
27
Step=2900 t=2900.000fs 
Na  10.337382  18.602308  18.666697
Na  2.389038  7.943335  12.398193
Na  24.731535  20.904419  17.195545
Na  25.596047  13.129685  21.119552
Na  20.795416  28.971602  19.473094
Na  20.848048  30.925273  6.864833
Na  28.752388  31.106726  13.923729
Na  26.695536  23.856471  22.511106
Na  13.531824  20.688154  2.419865
Na  23.199953  27.663815  3.549985
Na  22.742971  1.132781  1.676749
Na  18.883633  23.729002  15.287788
Na  24.176588  22.628653  27.643600
Na  19.300650  19.793877  27.951960
Na  0.149234  14.686897  30.017651
Na  22.666862  14.200858  18.125534
Na  21.328089  21.842134  3.053626
Na  19.976730  20.560060  23.191870
Na  0.156227  11.047788  4.177422
Na  33.444893  10.540852  0.002613
Na  12.024109  15.039157  2.356068
Na  34.395674  15.757716  35.432573
Na  32.246534  26.991357  12.039450
Na  16.981907  16.373443  22.738047
Na  22.602334  13.712748  25.672636
Na  21.160036  16.456244  20.260832
Na  28.952019  21.982671  26.921744
27
Step=3000 t=3000.000fs 
Na  10.357648  18.886847  20.244773
Na  3.249188  8.347117  13.720995
Na  25.931243  20.791866  17.087303
Na  26.124789  12.536854  21.600011
Na  20.677754  28.913479  19.175083
Na  21.150235  32.754531  7.514780