27
Step=0 t=0.000fs 
Na  13.562816  13.562816  13.562816
Na  13.562816  13.562816  18.898816
Na  13.562816  13.562816  24.234816
Na  13.562816  18.898816  13.562816
Na  13.562816  18.898816  18.898816
Na  13.562816  18.898816  24.234816
Na  13.562816  24.234816  13.562816
Na  13.562816  24.234816  18.898816
Na  13.562816  24.234816  24.234816
Na  18.898816  13.562816  13.562816
Na  18.898816  13.562816  18.898816
Na  18.898816  13.562816  24.234816
Na  18.898816  18.898816  13.562816
Na  18.898816  18.898816  18.898816
Na  18.898816  18.898816  24.234816
Na  18.898816  24.234816  13.562816
Na  18.898816  24.234816  18.898816
Na  18.898816  24.234816  24.234816
Na  24.234816  13.562816  13.562816
Na  24.234816  13.562816  18.898816
Na  24.234816  13.562816  24.234816
Na  24.234816  18.898816  13.562816
Na  24.234816  18.898816  18.898816
Na  24.234816  18.898816  24.234816
Na  24.234816  24.234816  13.562816
Na  24.234816  24.234816  18.898816
Na  24.234816  24.234816  24.234816
27
Step=100 t=100.000fs 
Na  13.860829  13.589058  14.090876
Na  13.839523  13.209061  19.442877
Na  13.869949  14.015446  23.762921
Na  13.520227  18.776434  14.177873
Na  13.817442  19.313913  18.846245
Na  13.271161  18.989201  23.622973
Na  13.965983  24.344701  13.968433
Na  13.418107  24.741309  19.375459
Na  13.864746  23.825243  24.149599
Na  18.323286  13.273400  13.886305
Na  19.119884  14.289711  18.699244
Na  18.692936  13.650892  23.761602
Na  18.403917  18.884846  13.397736
Na  19.028219  18.861437  19.310084
Na  19.043322  18.716607  24.513974
Na  19.209462  24.029273  13.409484
Na  19.014591  23.689786  18.552999
Na  18.275277  24.508172  24.334026
Na  24.328201  14.003590  13.579968
Na  24.153659  13.251215  18.463236
Na  24.292227  13.613703  24.243861
Na  24.372082  19.085927  13.715079
Na  24.096734  18.675795  18.362870
Na  23.993110  18.602808  24.015210
Na  24.530396  23.888403  13.110784
Na  23.810769  23.905740  19.091802
Na  24.151987  24.532352  24.382505
27
Step=200 t=200.000fs 
Na  13.988317  13.783077  14.783643
Na  14.334268  13.061229  19.596957
Na  14.216336  14.652357  23.510586
Na  13.589544  18.674464  14.812554
Na  14.408380  19.713536  18.848821
Na  13.214479  19.028342  22.948927
Na  14.506771  24.247455  14.548495
Na  13.490036  25.041484  19.731164
Na  14.016980  23.285207  24.021493
Na  18.142283  13.184294  14.317649
Na  19.296786  15.091666  18.483499
Na  18.658306  13.893907  23.104180
Na  18.091979  18.807670  13.599007
Na  19.105515  18.939367  19.732754
Na  19.011941  18.636146  24.534000
Na  19.552092  23.651135  13.429116
Na  18.891159  22.975902  18.254164
Na  18.039635  24.580441  24.180168
Na  24.205892  14.541038  13.658672
Na  23.901333  13.132039  18.191003
Na  24.169631  13.721378  24.062892
Na  24.241616  19.226877  13.876903
Na  23.682199  18.390321  18.058880
Na  23.612590  18.446559  23.510408
Na  24.695511  23.557693  12.834509
Na  23.320560  23.367208  19.231264
Na  23.883887  24.637233  24.406317
27
Step=300 t=300.000fs 
Na  13.827977  14.137490  15.498848
Na  15.023975  13.049128  19.393701
Na  14.543863  15.364491  23.592264
Na  13.625761  18.595782  15.263151
Na  15.299389  20.145473  18.901058
Na  13.231028  18.969311  22.352816
Na  15.121138  23.921550  15.244316
Na  13.757531  25.149694  19.896749
Na  13.979281  22.702691  23.969243
Na  18.477946  13.223842  14.726792
Na  19.380770  15.682237  18.120667
Na  18.920486  14.199723  22.350114
Na  18.106282  18.644564  14.157499
Na  19.136492  19.177545  20.338525
Na  18.706581  18.714695  24.438361
Na  19.919937  23.153349  13.576244
Na  18.466878  22.419677  17.946824
Na  18.314030  24.486727  23.756390
Na  23.858806  15.022830  13.741887
Na  23.503505  13.144016  18.171628
Na  23.878507  13.827921  23.699792
Na  23.832500  19.349886  13.939780
Na  23.073985  18.040565  18.113885
Na  23.171237  18.501623  22.739712
Na  24.778112  23.424565  12.695200
Na  22.876341  22.687715  19.337768
Na  23.455687  24.530936  24.304813
27
Step=400 t=400.000fs 
Na  13.639981  14.515453  15.933001
Na  15.875704  13.162755  19.402924
Na  15.038015  15.740575  23.807292
Na  13.590364  18.703509  15.599036
Na  15.791026  20.245937  19.038677
Na  13.030514  18.841959  21.581800
Na  15.521039  23.539778  15.707655
Na  14.174907  25.088092  19.982102
Na  14.089701  22.321278  24.079080
Na  18.927979  13.235663  14.949563
Na  19.110363  16.215832  17.748576
Na  19.358672  14.532455  21.665389
Na  18.379773  18.437843  14.860941
Na  19.174518  19.388648  20.950267
Na  18.198958  18.906833  24.639163
Na  20.253016  22.638810  13.770058
Na  18.594025  22.387495  17.657181
Na  18.681424  24.138994  23.040408
Na  23.327432  15.243161  13.840297
Na  23.009350  13.182319  18.347022
Na  23.499052  13.969997  23.219448
Na  23.179203  19.542320  14.084112
Na  22.643628  17.784944  18.152398
Na  22.850758  18.666786  22.130338
Na  24.878940  23.534476  12.635421
Na  22.468479  22.091814  19.360596
Na  22.981204  24.210299  24.085282
27
Step=500 t=500.000fs 
Na  13.585206  14.747467  16.242523
Na  16.602515  13.264391  19.555214
Na  15.621460  15.833568  23.913521
Na  13.569482  19.131165  15.842776
Na  15.876039  20.004583  19.249738
Na  12.487488  18.501427  20.693984
Na  15.421066  23.290315  15.632951
Na  14.700423  24.860871  20.103854
Na  14.412045  22.010468  24.221954
Na  19.210773  13.064830  14.989688
Na  18.324234  16.592119  18.011260
Na  19.748715  15.015576  21.333240
Na  18.460501  18.624678  14.901588
Na  18.991921  19.529461  21.209831
Na  17.756757  19.210153  25.320432
Na  20.295517  22.476214  13.728005
Na  19.392526  22.682491  17.693752
Na  18.722261  23.591437  22.054281
Na  22.752433  15.249096  13.941552
Na  22.480073  13.140806  18.498922
Na  23.275013  14.167554  22.830974
Na  22.708927  19.624736  14.371630
Na  22.684426  17.608678  17.947562
Na  23.008911  18.725701  22.277326
Na  25.024228  23.747994  12.657434
Na  22.478960  21.895442  19.223139
Na  22.676127  23.676804  23.820894
27
Step=600 t=600.000fs 
Na  13.737792  14.890270  16.588186
Na  16.830174  12.909878  19.724075
Na  16.048275  15.823870  23.650727
Na  13.465121  19.552399  15.816892
Na  15.834933  20.129334  19.339404
Na  11.797441  17.930007  20.060377
Na  15.336995  23.157277  15.387419
Na  15.098603  24.548447  20.144049
Na  14.663542  21.680475  24.119394
Na  19.014808  12.868712  15.099541
Na  17.477389  16.918986  18.247128
Na  19.916806  15.729338  21.600449
Na  18.183529  18.961972  14.383022
Na  19.124941  19.358404  21.592821
Na  17.805451  19.612735  26.150503
Na  19.897128  23.003431  13.200003
Na  19.449888  23.091975  17.591288
Na  18.540253  23.310548  21.333643
Na  22.367375  15.230401  13.904076
Na  22.033154  12.891240  18.419071
Na  23.566790  14.239529  22.815952
Na  22.871305  19.595979  14.604426
Na  22.767391  17.361731  18.063076
Na  23.389916  18.757449  22.832217
Na  25.106146  23.901951  12.820306
Na  23.437810  21.782125  19.138247
Na  22.505067  23.029563  23.641733
27
Step=700 t=700.000fs 
Na  13.944316  14.928510  16.822964
Na  16.938260  12.289184  19.956700
Na  16.125667  15.980061  23.239404
Na  13.127059  19.617210  15.577243
Na  15.473127  20.551574  19.537986
Na  11.340176  17.383595  19.718357
Na  15.438417  23.381887  15.113088
Na  14.824558  24.561626  19.918851
Na  14.705107  21.303998  23.731138
Na  18.282208  12.794855  15.260730
Na  17.230035  17.035859  17.998388
Na  20.103984  15.801208  21.937475
Na  17.881386  19.022826  14.015332
Na  19.461626  19.567625  22.006321
Na  18.317506  19.893632  26.891940
Na  19.506341  23.691247  12.479894
Na  19.555310  23.204207  17.095805
Na  18.773915  23.396155  21.436953
Na  22.117371  15.285548  13.747567
Na  21.657350  12.555160  18.404426
Na  24.174339  14.076806  22.935424
Na  23.091763  19.896093  14.716005
Na  22.580350  17.124322  18.592355
Na  23.879098  18.710955  23.414054
Na  25.047034  23.958527  13.141446
Na  24.444052  21.677771  18.958882
Na  22.247669  22.577585  23.619297
27
Step=800 t=800.000fs 
Na  13.993414  14.750157  16.886288
Na  17.025832  11.816561  20.263410
Na  15.797853  16.369327  22.760166
Na  12.747832  19.497288  15.327662
Na  15.240281  20.519524  19.444605
Na  11.139599  17.022149  19.645548
Na  15.534438  23.724771  14.894979
Na  14.232595  25.020782  19.566886
Na  14.715947  20.831844  23.527171
Na  17.433005  12.911198  15.328609
Na  17.787205  17.196400  17.958089
Na  20.314320  15.138449  22.250472
Na  17.764639  18.999139  13.801707
Na  19.525132  19.759614  22.039372
Na  18.965102  20.077415  27.315326
Na  19.266742  24.243134  11.738582
Na  19.920066  22.899306  16.745041
Na  18.938290  24.027485  21.564041
Na  21.784515  15.446401  13.738042
Na  21.384073  12.288812  18.486888
Na  24.806300  13.783049  22.954256
Na  22.983201  20.163780  14.868111
Na  22.268603  17.177892  18.957012
Na  24.465730  18.458789  23.904358
Na  24.857494  24.028715  13.572086
Na  25.128839  21.587054  18.867573
Na  22.246979  22.528991  23.861744
27
Step=900 t=900.000fs 
Na  13.856309  14.737328  17.082389
Na  16.975559  11.601826  20.600023
Na  15.453119  16.647883  22.064174
Na  12.546954  19.346349  15.145413
Na  15.259392  20.312383  18.820251
Na  11.124002  16.878785  19.779458
Na  15.619120  23.909828  14.819355
Na  13.713901  25.463977  19.233772
Na  14.771957  20.553481  23.688015
Na  17.026817  13.057456  15.224423
Na  18.518255  17.328458  18.054903
Na  20.315694  14.472758  22.780901
Na  17.705839  19.024142  13.698347
Na  19.412754  19.534820  21.764206
Na  19.606404  20.165229  27.360655
Na  19.167072  24.598242  11.133511
Na  20.127191  22.426420  16.832245
Na  18.731294  24.890835  21.338894
Na  21.303635  15.669995  14.004946
Na  21.230943  12.206785  18.463111
Na  25.371347  13.448825  22.798528
Na  22.646126  19.988437  14.995079
Na  22.223135  17.503930  19.079200
Na  24.888119  18.180301  24.220619
Na  24.571156  24.226571  14.058273
Na  25.489488  21.448437  18.987247
Na  22.612440  22.644544  24.240086
27
Step=1000 t=1000.000fs 
Na  13.715803  14.982257  17.449533
Na  16.760419  11.656660  20.849381
Na  15.395139  16.485361  21.166945
Na  12.497559  19.169690  14.959561
Na  15.456501  20.294575  18.094576
Na  11.066105  17.029731  20.096845
Na  15.813245  23.881935  14.867837
Na  13.320042  25.656643  18.935069
Na  14.936153  20.627439  23.896378
Na  17.140437  13.192767  14.996571
Na  18.657115  17.102724  17.898949
Na  20.243236  14.125761  23.358438
Na  17.521592  19.140711  13.714669
Na  19.306271  19.559224  21.675921
Na  20.201397  20.106075  27.074600
Na  19.159214  24.746799  10.757290
Na  19.850703  22.139540  17.463573
Na  18.431853  25.449381  20.935562
Na  20.747427  15.741952  14.460475
Na  21.140734  12.434695  18.334686
Na  25.779571  13.159362  22.437000
Na  22.509222  19.460234  14.899508
Na  22.935233  17.725054  19.357173
Na  25.031745  17.935638  24.333170
Na  24.118167  24.455909  14.649226
Na  25.552784  21.262754  19.249845
Na  22.980357  22.745156  24.355247
27
Step=1100 t=1100.000fs 
Na  13.753904  15.106621  17.409736
Na  16.497255  11.914699  20.909354
Na  15.816396  16.327747  20.669854
Na  12.481393  18.957484  14.727377
Na  15.648816  20.413013  17.788599
Na  10.807744  17.562824  20.572573
Na  16.150357  23.782220  14.940962
Na  13.068840  25.551942  18.659482
Na  15.247250  20.779960  23.866044
Na  17.154807  13.257532  14.822245
Na  18.542717  16.741391  17.942331
Na  20.214646  14.205722  23.763564
Na  17.274146  19.325043  13.727876
Na  19.298098  19.711749  21.790937
Na  20.673171  19.818309  26.537951
Na  19.197767  24.687654  10.653129
Na  19.595389  21.900192  18.253237
Na  18.108218  25.650291  20.458509
Na  20.463042  15.481728  14.682827
Na  21.070247  12.945054  18.327882
Na  25.946981  12.997960  21.898708
Na  22.579777  19.253701  14.781051
Na  23.644345  17.516259  19.808866
Na  24.893815  17.720437  24.269926
Na  23.394283  24.544339  15.399695
Na  25.441978  21.282181  19.562971
Na  23.302643  22.831973  24.042339
27
Step=1200 t=1200.000fs 
Na  13.670169  15.138109  16.995710
Na  16.329375  12.171744  20.790742
Na  16.199737  16.563642  21.146320
Na  12.471287  18.774441  14.524061
Na  15.485859  20.407949  18.108080
Na  10.756202  18.303296  21.015504
Na  16.638331  23.838234  14.993255
Na  12.956622  25.142567  18.398180
Na  15.601347  20.914233  23.536311
Na  16.722162  13.068297  14.701002
Na  18.738839  16.860192  18.100301
Na  20.236324  14.659334  23.879075
Na  17.269187  19.349414  13.674198
Na  19.543960  19.573426  22.042970
Na  20.976779  19.328748  25.890663
Na  19.265283  24.434409  10.816675
Na  19.861177  21.644432  18.670012
Na  17.773354  25.609737  19.981056
Na  20.757701  15.287350  14.364907
Na  21.098807  13.421296  18.704587
Na  25.863062  12.977760  21.261013
Na  22.626851  19.424354  14.924290
Na  23.741066  16.907350  20.060100
Na  24.610189  17.519680  24.196244
Na  22.371720  24.443211  16.299356
Na  25.200363  21.593743  19.791261
Na  23.502272  22.911077  23.402150
27
Step=1300 t=1300.000fs 
Na  13.595976  15.335119  16.961036
Na  16.309444  12.395085  20.506515
Na  16.160475  16.929696  22.036163
Na  12.514755  18.808351  14.381262
Na  15.187923  20.303684  18.655393
Na  11.095044  19.048892  21.261079
Na  17.169483  23.899678  15.178606
Na  12.938396  24.481420  18.167268
Na  15.867300  21.163052  23.053227
Na  16.409607  12.854356  14.635796
Na  19.051702  17.385410  17.900093
Na  20.240703  15.136771  23.701698
Na  17.523709  19.179742  13.754074
Na  20.003996  19.205748  22.040578
Na  21.051069  18.964288  25.741488
Na  19.389848  24.021458  11.172722
Na  20.207159  21.258093  18.741907
Na  17.527359  25.342739  19.604511
Na  21.179446  15.177974  13.913383
Na  21.059826  13.517918  19.242702
Na  25.661275  12.955242  20.702305
Na  22.552999  19.751404  15.338989
Na  23.425080  16.734395  19.840414
Na  24.574133  17.318823  24.160359
Na  21.362121  24.437426  17.039369
Na  24.921331  21.634141  19.561977
Na  23.287865  23.027120  22.975111
27
Step=1400 t=1400.000fs 
Na  13.685499  15.737204  17.443820
Na  16.384701  12.784632  20.102995
Na  15.953210  17.041725  22.710130
Na  12.692802  19.140608  14.301085
Na  15.189536  20.044025  18.832388
Na  11.656136  19.737550  21.352828
Na  17.387432  23.648235  15.432204
Na  12.918120  23.672663  17.930660
Na  16.251496  21.766106  22.675261
Na  16.443289  12.780615  14.644736
Na  18.874349  17.438257  17.573781
Na  20.171279  15.119117  23.422520
Na  17.818323  18.984512  13.992194
Na  20.400574  18.927695  21.802637
Na  20.891124  19.006642  26.365728
Na  19.636153  23.444957  11.614997
Na  20.059762  20.995405  18.853892
Na  17.290687  24.906207  19.624598
Na  21.500453  15.138933  13.714724
Na  20.633477  13.247620  19.536654
Na  25.472847  12.900484  20.264895
Na  22.495115  20.027068  15.586189
Na  23.212740  17.244172  19.287409
Na  24.924828  17.108801  23.962539
Na  20.912934  24.947190  17.413121
Na  24.819451  21.314357  18.927291
Na  22.591710  23.163245  22.898747
27
Step=1500 t=1500.000fs 
Na  13.850100  16.214330  18.057457
Na  16.290351  13.290713  19.776270
Na  15.780132  17.106523  23.117230
Na  13.064791  19.611905  14.333662
Na  15.723653  19.621077  18.589402
Na  12.142170  20.289340  21.455429
Na  17.123927  23.049539  15.568724
Na  12.833147  22.963371  17.634351
Na  16.838978  22.239069  22.710775
Na  16.691106  12.980508  14.783868
Na  18.409435  16.649979  17.556637
Na  20.114879  14.752399  23.376490
Na  17.932452  18.893856  14.012512
Na  20.529244  18.707830  22.089033
Na  20.611438  19.207429  26.963927
Na  20.022531  22.757176  12.070735
Na  19.528106  21.394963  18.756412
Na  16.933744  24.687141  19.954125
Na  21.686530  15.222752  13.872273
Na  20.391785  13.008012  19.351025
Na  25.207910  12.991372  19.899193
Na  22.328711  20.226044  15.170471
Na  23.188470  17.368804  18.596421
Na  25.191389  16.992696  23.580863
Na  21.183876  25.611239  17.631991
Na  24.960504  21.252220  18.592995
Na  21.708664  23.177737  22.765754
27
Step=1600 t=1600.000fs 
Na  13.449898  16.591079  18.421290
Na  15.967332  13.518436  19.895854
Na  15.778596  17.286882  23.288397
Na  13.559248  19.890145  14.337626
Na  16.429591  19.500027  18.608765
Na  12.662492  20.711885  21.624107
Na  16.715056  22.676826  15.529918
Na  12.675208  22.525710  17.419041
Na  17.283789  21.905173  23.408482
Na  16.995864  13.384332  14.924518
Na  18.493643  16.028444  17.805898
Na  20.076227  14.268058  23.515087
Na  17.901314  18.586688  13.862111
Na  20.482279  18.597732  22.170492
Na  20.277132  19.394660  27.226957
Na  20.363405  22.284851  12.346464
Na  19.559665  21.527243  18.591585
Na  16.469307  25.133489  19.855590
Na  21.750133  15.382796  14.276828
Na  20.615198  12.723888  18.830581
Na  24.880875  13.225474  19.578817
Na  22.115157  20.278169  14.750170
Na  22.924808  17.085596  18.035850
Na  25.174429  16.997206  23.045225
Na  21.572518  26.061039  17.773613
Na  25.089495  21.528417  18.629847
Na  21.005366  23.173780  22.514914
27
Step=1700 t=1700.000fs 
Na  12.653462  17.061300  18.547675
Na  15.638959  13.390603  20.453430
Na  15.950219  17.385483  23.281387
Na  13.931182  19.612978  14.076358
Na  16.780859  19.432005  19.027637
Na  13.321884  21.086058  21.836870
Na  16.637846  22.842644  15.337955
Na  12.354734  22.368027  17.528347
Na  17.244252  21.321793  24.193212
Na  17.143473  13.768668  14.886695
Na  18.866905  16.213227  18.230180
Na  20.035489  13.847151  23.524706
Na  17.873344  17.936587  13.783689
Na  20.427148  18.360973  21.869882
Na  19.920804  19.512382  27.162945
Na  20.230223  22.459732  12.070027
Na  20.399694  21.632230  18.335226
Na  16.025358  25.523621  19.658064
Na  21.735407  15.382645  14.434190
Na  20.821412  12.107521  18.308586
Na  24.744318  13.511161  19.344066
Na  22.386305  19.901728  15.100319
Na  22.655232  17.160497  18.007479
Na  24.874368  17.140112  22.379190
Na  21.826961  26.171459  17.876249
Na  24.923361  21.762997  18.833033
Na  20.864830  23.374443  22.180627
27
Step=1800 t=1800.000fs 
Na  12.084413  17.562143  18.603097
Na  15.472078  13.331125  20.920093
Na  16.133250  17.042029  23.167273
Na  14.052821  19.028034  13.825221
Na  16.739984  19.802079  19.348433
Na  13.927260  21.512104  22.029431
Na  16.961540  23.157003  15.374605
Na  12.045371  22.265457  17.708358
Na  17.077497  21.189890  24.719453
Na  17.002241  13.886823  14.988596
Na  18.826457  16.208968  18.732173
Na  20.030089  13.618853  23.264578
Na  18.154775  17.667625  13.836761
Na  20.376563  18.302631  21.764521
Na  19.808269  19.377133  26.965468
Na  19.922449  22.725683  11.798099
Na  20.791543  21.728666  17.950688
Na  15.815649  25.526760  19.503531
Na  21.806793  15.031869  14.192489
Na  20.658402  11.378913  17.824688
Na  24.850171  13.735184  19.167243
Na  22.825608  19.648468  15.064212
Na  22.860757  17.488874  18.547242
Na  24.496600  17.485963  21.855018
Na  21.921520  26.093201  17.894483
Na  24.792559  21.874490  19.224698
Na  20.833366  23.598059  21.997571
27
Step=1900 t=1900.000fs 
Na  11.912562  17.934168  18.736920
Na  15.336441  13.197231  21.041004
Na  16.240605  16.682689  23.120016
Na  14.074875  18.474699  13.840498
Na  16.688666  20.419996  19.187707
Na  14.136766  22.040466  22.152887
Na  17.273394  23.294770  15.622116
Na  11.914209  22.226432  17.755097
Na  16.957656  21.545079  25.014009
Na  16.567477  13.701464  15.409570
Na  18.495405  15.751852  18.815096
Na  20.166488  13.568667  22.751463
Na  18.822162  18.122799  14.112828
Na  20.104920  18.838550  22.260025
Na  20.181723  18.824426  26.774197
Na  19.661052  22.823610  11.703089
Na  20.359102  21.618170  17.549483
Na  15.872644  25.276527  19.417183
Na  22.046787  14.511624  14.089273
Na  20.317316  10.860089  17.426368
Na  24.927544  13.723864  18.921441
Na  23.364053  19.525249  14.331355
Na  22.864545  17.732926  18.342238
Na  24.594443  17.978041  22.289418
Na  21.886887  26.006113  17.783606
Na  24.934728  21.982283  19.802926
Na  20.565573  23.606241  22.018212
27
Step=2000 t=2000.000fs 
Na  12.209918  17.954871  19.020108
Na  15.091907  12.801977  20.795630
Na  16.232411  16.857631  23.206876
Na  14.230938  18.068284  14.178990
Na  16.602504  20.401043  18.920179
Na  13.837179  22.437977  22.211849
Na  17.124308  23.452727  15.566049
Na  12.014432  22.405312  17.603600
Na  17.076203  21.963055  25.384872
Na  16.014339  13.588893  15.799884
Na  18.380447  15.711314  18.708908
Na  20.510985  13.702452  22.130933
Na  19.383494  18.671219  14.632881
Na  19.819406  19.475171  22.371852
Na  20.744719  18.069645  26.581567
Na  19.520091  22.756041  11.744328
Na  20.363507  21.218009  17.381450
Na  16.173135  25.143711  19.455478
Na  22.227930  14.058831  14.226928
Na  19.967151  10.639820  17.208573
Na  24.788620  13.665746  18.695317
Na  23.939584  19.578663  13.500619
Na  22.427157  17.846817  17.869825
Na  24.783399  18.337699  23.193131
Na  21.730962  25.825557  17.607501
Na  24.928528  22.126870  20.253491
Na  20.144770  23.508693  22.017207
27
Step=2100 t=2100.000fs 
Na  12.859319  17.709846  19.433313
Na  14.902153  12.460029  20.458292
Na  16.137436  17.254963  23.205145
Na  14.635406  17.886208  14.773859
Na  16.339307  19.886644  18.827514
Na  13.426311  22.545652  22.282337
Na  16.664311  23.608763  15.240670
Na  12.319836  22.661716  17.294605
Na  17.288090  22.261877  25.793620
Na  15.441327  13.573218  16.024091
Na  18.362625  16.141617  18.586201
Na  20.944742  14.051707  21.537897
Na  19.368108  18.654717  14.734148
Na  19.729940  19.594076  21.921088
Na  21.224602  17.257652  26.326261
Na  19.530138  22.564644  11.870055
Na  20.837948  21.465881  17.730182
Na  16.630327  25.200278  19.623435
Na  22.206703  13.858466  14.481845
Na  19.608510  10.683032  17.180011
Na  24.454927  13.716197  18.560921
Na  24.444302  19.701862  12.828494
Na  22.327210  17.557387  17.889703
Na  24.720623  18.536430  23.910638
Na  21.452346  25.484445  17.408325
Na  24.614778  22.212148  20.502324
Na  19.796700  23.738569  21.843052
27
Step=2200 t=2200.000fs 
Na  13.346941  17.182726  19.929125
Na  14.921598  12.344521  20.277631
Na  16.072117  17.636963  23.181192
Na  15.075198  18.018326  15.353061
Na  16.377987  20.020653  18.744474
Na  13.223968  22.400760  22.296133
Na  16.254147  23.543839  15.015861
Na  12.740562  22.777957  17.014751
Na  17.555607  22.360026  26.008367
Na  14.985582  13.583487  16.087841
Na  18.182061  16.337263  18.456316
Na  21.174985  14.567883  21.212849
Na  19.142660  18.373111  14.500230
Na  19.922252  19.255148  21.441374
Na  21.296542  16.384894  25.924888
Na  19.731583  22.268183  12.106303
Na  21.031932  21.671705  18.061718
Na  16.789400  25.268006  19.604168
Na  21.901383  13.961154  14.651272
Na  19.190677  11.005286  17.350879
Na  24.308721  13.638438  18.530370
Na  24.679772  19.791968  12.467299
Na  22.689158  17.363494  18.163784
Na  24.597997  18.757139  24.211639
Na  21.130770  25.484112  17.037323
Na  24.157839  22.173199  20.712005
Na  19.786586  24.097783  21.927173
27
Step=2300 t=2300.000fs 
Na  13.473122  16.533396  20.258375
Na  15.180822  12.378064  20.435713
Na  16.290308  18.033049  23.368041
Na  15.081480  18.355100  15.642687
Na  16.750228  21.030517  18.930229
Na  13.325834  22.070151  22.190897
Na  16.352792  23.360304  14.716754
Na  12.858297  22.650721  17.039125
Na  17.877624  22.220345  25.920440
Na  14.614991  13.626555  15.874347
Na  18.023748  16.055828  18.325830
Na  21.000159  14.952076  21.306166
Na  19.323280  18.075104  14.320193
Na  20.199002  18.963445  21.419383
Na  20.943798  15.463616  25.412140
Na  20.093366  21.977327  12.507849
Na  20.707088  21.272825  17.742451
Na  16.488446  25.295156  19.286358
Na  21.333740  14.334003  14.700401
Na  18.780206  11.572238  17.696963
Na  24.568598  13.144320  18.515329
Na  24.625877  19.815496  12.435147
Na  23.187643  17.834723  18.185682
Na  24.442870  19.054365  24.176988
Na  20.752212  25.894507  16.429449
Na  23.891236  22.091566  21.030064
Na  20.101258  24.213227  22.401024
27
Step=2400 t=2400.000fs 
Na  13.490353  16.283750  20.309347
Na  15.572351  12.415061  20.950734
Na  16.673051  18.341373  23.575788
Na  14.880256  18.786085  15.856312
Na  17.161573  21.555685  19.487614
Na  13.629473  21.644938  22.049916
Na  16.753296  23.156838  14.317414
Na  12.574510  22.361235  17.297151
Na  18.178102  21.847319  25.646157
Na  14.317257  13.746993  15.502421
Na  17.876954  16.154270  18.287506
Na  20.824963  14.825500  21.093580
Na  19.472785  17.961055  14.260132
Na  20.275516  19.124232  21.691517
Na  20.401521  14.748523  25.190445
Na  20.578376  21.873073  12.901856
Na  20.346414  21.053135  16.986628
Na  16.198995  25.545853  19.033175
Na  20.922458  14.561034  14.844492
Na  18.667300  12.034129  18.022715
Na  24.730947  12.674901  18.507796
Na  24.382724  19.720170  12.734201
Na  23.812992  18.237189  17.968029
Na  24.129139  19.114021  24.150925
Na  20.345564  26.126118  15.916223
Na  23.771020  22.150072  21.034401
Na  20.300136  24.225474  22.651552
27
Step=2500 t=2500.000fs 
Na  13.524696  16.494716  20.224954
Na  16.004423  12.504886  21.816177
Na  16.805561  18.066356  23.615225
Na  14.869607  19.139291  16.109552
Na  17.565576  21.533482  20.061087
Na  13.884391  21.181612  21.998138
Na  16.813038  22.917474  14.090075
Na  12.236942  22.113919  17.638134
Na  18.505472  21.448819  25.481417
Na  14.209685  14.004415  15.215977
Na  17.662807  17.033219  18.395265
Na  20.954450  14.661130  20.512893
Na  19.065308  18.093893  14.036953
Na  20.443059  19.384443  21.631990
Na  19.695147  14.220899  25.228364
Na  21.190011  22.192324  12.808721
Na  20.254018  20.966385  16.825443
Na  15.961905  26.040038  18.803677
Na  20.982099  14.272359  15.175685
Na  18.790874  12.074036  18.106241
Na  24.639568  12.421981  18.490203
Na  24.236302  19.360847  13.297222
Na  24.279424  18.385385  17.773868
Na  23.700785  18.853417  24.282264
Na  19.975303  26.150070  15.615958
Na  23.742433  22.356572  20.481986
Na  20.275141  24.396056  22.550556
27
Step=2600 t=2600.000fs 
Na  13.548699  16.773959  20.061107
Na  16.412528  12.801104  22.633022
Na  16.762409  17.196057  23.471739
Na  14.905456  19.379100  16.233983
Na  17.607899  21.799559  20.186666
Na  13.944512  20.817361  22.102300
Na  16.575579  22.677008  14.051745
Na  11.941245  22.072680  18.038758
Na  18.877320  21.164562  25.497149
Na  14.406235  14.437046  15.160376
Na  17.762218  17.737988  18.706595
Na  21.284258  15.032554  20.215780
Na  18.452206  18.057983  13.599580
Na  20.877634  19.181986  21.257196
Na  19.087685  13.930401  25.182260
Na  21.730497  22.854086  12.377150
Na  20.404962  20.992676  17.194918
Na  15.807788  26.239499  18.601004
Na  21.315095  14.212122  15.436121
Na  18.566043  11.806319  18.065335
Na  24.461456  12.340699  18.445976
Na  24.206498  18.702493  13.867340
Na  24.403713  18.229253  17.898307
Na  23.311500  18.438260  24.490730
Na  19.714936  26.017610  15.603831
Na  23.771403  22.608015  19.651428
Na  20.128251  24.767648  22.237629
27
Step=2700 t=2700.000fs 
Na  13.495870  16.794024  19.772588
Na  16.311788  12.822822  22.631913
Na  16.821054  16.801655  23.182867
Na  14.789639  19.524935  16.349713
Na  17.273239  22.346103  20.101016
Na  13.977463  20.580730  22.460775
Na  16.425078  22.608379  14.095806
Na  11.718100  22.195164  18.458117
Na  19.193467  20.806182  25.323700
Na  14.908065  15.008162  15.346539
Na  18.034726  17.696608  18.893208
Na  21.422499  15.374225  20.240962
Na  18.093920  17.936112  13.261249
Na  21.282935  19.170525  21.028358
Na  19.339664  13.890705  25.540396
Na  22.162690  23.385057  12.102252
Na  20.582466  21.039338  16.946842
Na  15.664192  26.092869  18.440838
Na  21.548061  14.650571  15.512755
Na  18.052606  11.644684  18.140040
Na  24.361090  12.292228  18.433781
Na  23.914727  18.049461  14.117921
Na  24.435496  17.810888  18.553537
Na  23.001420  17.867165  24.807041
Na  19.581435  25.707451  15.873561
Na  23.846934  22.991916  18.832505
Na  20.029401  25.180069  21.819746
27
Step=2800 t=2800.000fs 
Na  13.372946  16.590687  19.538646
Na  15.884482  12.458657  22.078550
Na  17.093318  17.125345  22.883093
Na  14.676278  19.695306  16.645829
Na  17.009449  22.368688  19.841102
Na  14.085664  20.412948  22.958726
Na  16.469342  22.754675  14.099878
Na  11.628947  22.378921  18.874782
Na  19.324049  20.478719  24.875339
Na  15.587091  15.406604  15.681653
Na  18.123153  17.419164  18.656925
Na  21.150057  14.921802  20.615443
Na  18.100906  17.908927  13.097674
Na  21.403507  20.085497  21.128991
Na  20.115508  13.987747  26.074058
Na  22.461482  23.665792  12.097574
Na  20.437413  20.823497  16.249472
Na  15.354871  25.908060  18.251893
Na  21.216168  15.095459  15.668803
Na  17.640365  11.840959  18.218397
Na  24.293418  12.236801  18.478032
Na  23.550048  17.835108  14.142966
Na  24.815750  17.476181  19.205237
Na  22.770928  17.147837  25.096587
Na  19.643198  25.320025  16.312079
Na  23.969562  23.428073  18.126053
Na  20.090126  25.496547  21.370245
27
Step=2900 t=2900.000fs 
Na  13.220108  16.317349  19.611013
Na  15.453066  12.332668  21.763641
Na  17.498747  17.244910  22.573042
Na  14.632312  19.985271  16.907642
Na  17.063143  21.765492  19.642980
Na  14.194518  20.348744  23.356464
Na  16.583587  22.942714  14.007362
Na  11.653387  22.521971  19.321210
Na  19.247435  20.423528  24.545388
Na  16.099245  15.405507  15.852417
Na  18.394522  17.490553  18.453110
Na  20.641796  14.369445  21.262742
Na  18.296564  18.117966  12.884898
Na  21.445323  21.084722  20.870486
Na  20.486497  13.845828  26.430118
Na  22.592808  23.716085  12.360542
Na  20.178213  20.382638  15.787123
Na  14.906494  25.865790  17.994018
Na  20.440190  15.119598  16.135949
Na  17.573670  12.195252  18.050591
Na  24.160150  12.238972  18.496245
Na  23.490386  18.200442  14.047537
Na  25.115726  17.305379  19.709383
Na  22.851475  16.759963  25.000805
Na  19.824101  25.013969  16.753351
Na  24.032053  23.660207  17.481313
Na  20.192507  25.613063  20.968655
27
Step=3000 t=3000.000fs 